/*--------------------------------*- C++ -*----------------------------------*\
| =========                 |                                                 |
| \\      /  F ield         | OpenFOAM: The Open Source CFD Toolbox           |
|  \\    /   O peration     | Version:  v2012                                 |
|   \\  /    A nd           | Website:  www.openfoam.com                      |
|    \\/     M anipulation  |                                                 |
\*---------------------------------------------------------------------------*/
FoamFile
{
    version     2.0;
    format      ascii;
    class       volScalarField;
    location    "0.365";
    object      p;
}
// * * * * * * * * * * * * * * * * * * * * * * * * * * * * * * * * * * * * * //

dimensions      [0 2 -2 0 0 0 0];


internalField   nonuniform List<scalar> 
189320
(
7.46124e-07
7.45794e-07
7.39561e-07
7.39192e-07
7.37861e-07
7.37229e-07
7.38862e-07
7.40216e-07
7.36873e-07
7.39544e-07
7.36598e-07
7.3749e-07
7.36785e-07
7.36633e-07
7.37106e-07
7.37115e-07
7.38171e-07
7.39182e-07
7.37474e-07
7.36399e-07
7.35947e-07
7.35856e-07
7.36166e-07
7.36826e-07
7.36627e-07
7.40709e-07
7.46034e-07
7.37795e-07
7.36775e-07
7.35944e-07
7.3556e-07
7.35488e-07
7.35715e-07
7.36315e-07
7.37338e-07
7.39747e-07
7.45736e-07
7.37216e-07
7.36627e-07
7.35856e-07
7.3549e-07
7.35418e-07
7.35628e-07
7.36178e-07
7.3734e-07
7.38016e-07
7.38857e-07
7.37107e-07
7.36171e-07
7.35721e-07
7.3563e-07
7.35909e-07
7.36556e-07
7.37144e-07
7.4867e-07
7.40217e-07
7.37122e-07
7.36838e-07
7.3633e-07
7.36187e-07
7.36559e-07
7.37229e-07
7.36533e-07
7.40201e-07
7.36882e-07
7.38188e-07
7.36655e-07
7.3737e-07
7.3736e-07
7.37152e-07
7.36536e-07
7.3578e-07
7.40735e-07
7.39784e-07
7.38054e-07
7.48686e-07
7.40212e-07
7.27571e-07
7.27346e-07
7.28779e-07
7.26724e-07
7.26856e-07
7.26585e-07
7.26579e-07
7.27124e-07
7.27666e-07
7.28779e-07
7.27798e-07
7.21388e-07
7.21333e-07
7.21335e-07
7.21378e-07
7.23628e-07
7.24239e-07
7.26713e-07
7.21382e-07
7.20667e-07
7.21196e-07
7.21188e-07
7.20669e-07
7.21398e-07
7.21302e-07
7.24555e-07
7.27564e-07
7.26859e-07
7.21332e-07
7.21185e-07
7.21396e-07
7.21392e-07
7.21192e-07
7.21328e-07
7.20913e-07
7.24201e-07
7.27344e-07
7.26589e-07
7.21336e-07
7.21186e-07
7.21393e-07
7.21392e-07
7.21195e-07
7.21334e-07
7.20927e-07
7.24056e-07
7.26581e-07
7.21375e-07
7.20667e-07
7.21191e-07
7.21182e-07
7.20671e-07
7.21388e-07
7.20946e-07
7.22031e-07
7.27129e-07
7.23641e-07
7.21399e-07
7.21332e-07
7.21332e-07
7.21385e-07
7.1763e-07
7.22471e-07
7.2585e-07
7.27669e-07
7.24242e-07
7.21307e-07
7.20913e-07
7.20928e-07
7.20946e-07
7.22455e-07
7.22711e-07
7.24558e-07
7.24208e-07
7.24057e-07
7.22031e-07
7.25844e-07
7.19855e-07
7.19422e-07
7.20935e-07
7.19327e-07
7.19634e-07
7.19669e-07
7.18968e-07
7.19263e-07
7.1962e-07
7.20934e-07
7.21307e-07
7.14454e-07
7.14394e-07
7.14393e-07
7.14456e-07
7.17041e-07
7.16612e-07
7.19326e-07
7.14452e-07
7.13881e-07
7.1397e-07
7.1396e-07
7.13889e-07
7.14457e-07
7.12627e-07
7.16749e-07
7.19852e-07
7.19632e-07
7.14391e-07
7.13959e-07
7.14017e-07
7.14012e-07
7.13967e-07
7.14393e-07
7.11517e-07
7.16791e-07
7.1942e-07
7.19667e-07
7.14393e-07
7.13958e-07
7.14013e-07
7.14012e-07
7.13968e-07
7.14394e-07
7.11644e-07
7.16013e-07
7.18963e-07
7.14452e-07
7.13883e-07
7.13967e-07
7.13958e-07
7.13889e-07
7.14457e-07
7.11741e-07
7.14364e-07
7.19263e-07
7.17042e-07
7.14456e-07
7.14393e-07
7.14392e-07
7.14456e-07
7.08843e-07
7.1416e-07
7.17506e-07
7.1962e-07
7.16613e-07
7.12628e-07
7.11521e-07
7.11644e-07
7.11745e-07
7.14161e-07
7.14429e-07
7.16739e-07
7.16789e-07
7.16013e-07
7.14368e-07
7.17499e-07
7.12117e-07
7.11671e-07
7.13178e-07
7.11753e-07
7.12117e-07
7.12202e-07
7.11345e-07
7.11541e-07
7.11849e-07
7.13179e-07
7.13862e-07
7.07012e-07
7.0699e-07
7.06989e-07
7.07011e-07
7.09299e-07
7.08846e-07
7.11748e-07
7.07012e-07
7.06799e-07
7.06794e-07
7.06792e-07
7.068e-07
7.07013e-07
7.0492e-07
7.09025e-07
7.12118e-07
7.12118e-07
7.06992e-07
7.06792e-07
7.06788e-07
7.06787e-07
7.06793e-07
7.0699e-07
7.03418e-07
7.08987e-07
7.11672e-07
7.12203e-07
7.06991e-07
7.0679e-07
7.06786e-07
7.06786e-07
7.06793e-07
7.06991e-07
7.0346e-07
7.08209e-07
7.11347e-07
7.07011e-07
7.06798e-07
7.06793e-07
7.06791e-07
7.06799e-07
7.07011e-07
7.03687e-07
7.06564e-07
7.11534e-07
7.09299e-07
7.07012e-07
7.06992e-07
7.06991e-07
7.07012e-07
7.00766e-07
7.06245e-07
7.09693e-07
7.1184e-07
7.08843e-07
7.04923e-07
7.0342e-07
7.03457e-07
7.03681e-07
7.06242e-07
7.06629e-07
7.09028e-07
7.08983e-07
7.08211e-07
7.06563e-07
7.09694e-07
7.04552e-07
7.04104e-07
7.05632e-07
7.04231e-07
7.04633e-07
7.04728e-07
7.03799e-07
7.03972e-07
7.04277e-07
7.05658e-07
7.06391e-07
6.99517e-07
6.99513e-07
6.99513e-07
6.99517e-07
7.01735e-07
7.01272e-07
7.04217e-07
6.99516e-07
6.99436e-07
6.99442e-07
6.9944e-07
6.99437e-07
6.99516e-07
6.97323e-07
7.01445e-07
7.04543e-07
7.04628e-07
6.99511e-07
6.99441e-07
6.99439e-07
6.99438e-07
6.99442e-07
6.99512e-07
6.95758e-07
7.01401e-07
7.04101e-07
7.04723e-07
6.99511e-07
6.99441e-07
6.99438e-07
6.99437e-07
6.99442e-07
6.99512e-07
6.95818e-07
7.00634e-07
7.03794e-07
6.99516e-07
6.99436e-07
6.99441e-07
6.99439e-07
6.99437e-07
6.99517e-07
6.96101e-07
6.98973e-07
7.03972e-07
7.01736e-07
6.99516e-07
6.99512e-07
6.99512e-07
6.99517e-07
6.93141e-07
6.98682e-07
7.02055e-07
7.04278e-07
7.01273e-07
6.97323e-07
6.95759e-07
6.95814e-07
6.96099e-07
6.9868e-07
6.99061e-07
7.01438e-07
7.01398e-07
7.00634e-07
6.98975e-07
7.02071e-07
6.97036e-07
6.96592e-07
6.98165e-07
6.96726e-07
6.97145e-07
6.97243e-07
6.96286e-07
6.96453e-07
6.96789e-07
6.98168e-07
6.98918e-07
6.92027e-07
6.92026e-07
6.92026e-07
6.92026e-07
6.94228e-07
6.93768e-07
6.96722e-07
6.92026e-07
6.91999e-07
6.91999e-07
6.91999e-07
6.91998e-07
6.92025e-07
6.89811e-07
6.93913e-07
6.97032e-07
6.97144e-07
6.92025e-07
6.91999e-07
6.92e-07
6.92e-07
6.91999e-07
6.92025e-07
6.88225e-07
6.93881e-07
6.9659e-07
6.97242e-07
6.92026e-07
6.91999e-07
6.91999e-07
6.92e-07
6.92e-07
6.92025e-07
6.88287e-07
6.93121e-07
6.96287e-07
6.92026e-07
6.91998e-07
6.91998e-07
6.91999e-07
6.91999e-07
6.92025e-07
6.88591e-07
6.91452e-07
6.9645e-07
6.94227e-07
6.92026e-07
6.92025e-07
6.92025e-07
6.92026e-07
6.85616e-07
6.91177e-07
6.94491e-07
6.96788e-07
6.93769e-07
6.8981e-07
6.88222e-07
6.88281e-07
6.88584e-07
6.91173e-07
6.91559e-07
6.93905e-07
6.93879e-07
6.93118e-07
6.91447e-07
6.94414e-07
6.89544e-07
6.891e-07
6.90682e-07
6.89241e-07
6.89665e-07
6.89764e-07
6.88792e-07
6.88961e-07
6.89299e-07
6.90681e-07
6.91437e-07
6.84538e-07
6.84542e-07
6.84541e-07
6.84538e-07
6.86736e-07
6.86276e-07
6.8924e-07
6.8454e-07
6.8453e-07
6.84532e-07
6.84532e-07
6.8453e-07
6.8454e-07
6.82316e-07
6.86416e-07
6.89542e-07
6.89666e-07
6.84541e-07
6.8453e-07
6.84532e-07
6.84532e-07
6.84529e-07
6.84539e-07
6.80724e-07
6.86388e-07
6.891e-07
6.89762e-07
6.8454e-07
6.8453e-07
6.84531e-07
6.84532e-07
6.84529e-07
6.84539e-07
6.80794e-07
6.85631e-07
6.88793e-07
6.84539e-07
6.84531e-07
6.84531e-07
6.84532e-07
6.8453e-07
6.84539e-07
6.81103e-07
6.8396e-07
6.88959e-07
6.86736e-07
6.84539e-07
6.8454e-07
6.8454e-07
6.84539e-07
6.78123e-07
6.8369e-07
6.86995e-07
6.89298e-07
6.86276e-07
6.82317e-07
6.80724e-07
6.80793e-07
6.81099e-07
6.83685e-07
6.84067e-07
6.86409e-07
6.86389e-07
6.8563e-07
6.83951e-07
6.86911e-07
6.8206e-07
6.81616e-07
6.83196e-07
6.81758e-07
6.82183e-07
6.8228e-07
6.81306e-07
6.81475e-07
6.81814e-07
6.83195e-07
6.83954e-07
6.77055e-07
6.77054e-07
6.77054e-07
6.77056e-07
6.79251e-07
6.78792e-07
6.81757e-07
6.77054e-07
6.77052e-07
6.77052e-07
6.77052e-07
6.77053e-07
6.77055e-07
6.74834e-07
6.78932e-07
6.82058e-07
6.82184e-07
6.77054e-07
6.77053e-07
6.77052e-07
6.77052e-07
6.77053e-07
6.77055e-07
6.7324e-07
6.78905e-07
6.81616e-07
6.8228e-07
6.77055e-07
6.77052e-07
6.77053e-07
6.77052e-07
6.77053e-07
6.77055e-07
6.73311e-07
6.78147e-07
6.81307e-07
6.77055e-07
6.77053e-07
6.77053e-07
6.77052e-07
6.77053e-07
6.77055e-07
6.73622e-07
6.76474e-07
6.81474e-07
6.7925e-07
6.77055e-07
6.77054e-07
6.77055e-07
6.77056e-07
6.70638e-07
6.76204e-07
6.79508e-07
6.81812e-07
6.7879e-07
6.74831e-07
6.73236e-07
6.73305e-07
6.73614e-07
6.762e-07
6.76582e-07
6.78925e-07
6.78901e-07
6.78145e-07
6.76465e-07
6.7942e-07
6.74575e-07
6.74132e-07
6.75712e-07
6.74274e-07
6.747e-07
6.74798e-07
6.73823e-07
6.73991e-07
6.7433e-07
6.75711e-07
6.76473e-07
6.69571e-07
6.69572e-07
6.69572e-07
6.69572e-07
6.71766e-07
6.71307e-07
6.74274e-07
6.69573e-07
6.6957e-07
6.6957e-07
6.6957e-07
6.6957e-07
6.6957e-07
6.6735e-07
6.71447e-07
6.74575e-07
6.74702e-07
6.69572e-07
6.69569e-07
6.6957e-07
6.6957e-07
6.69571e-07
6.69571e-07
6.65754e-07
6.71421e-07
6.74132e-07
6.74799e-07
6.69572e-07
6.69571e-07
6.69572e-07
6.69571e-07
6.69571e-07
6.69571e-07
6.65826e-07
6.70663e-07
6.73824e-07
6.6957e-07
6.69568e-07
6.69568e-07
6.69569e-07
6.6957e-07
6.69572e-07
6.66139e-07
6.6899e-07
6.73991e-07
6.71765e-07
6.69573e-07
6.69573e-07
6.69572e-07
6.69573e-07
6.63156e-07
6.6872e-07
6.72024e-07
6.74329e-07
6.71306e-07
6.67348e-07
6.65751e-07
6.65821e-07
6.6613e-07
6.68717e-07
6.69098e-07
6.71442e-07
6.71418e-07
6.70661e-07
6.68982e-07
6.71937e-07
6.67092e-07
6.66648e-07
6.68229e-07
6.66791e-07
6.67218e-07
6.67315e-07
6.66338e-07
6.66507e-07
6.66846e-07
6.68228e-07
6.6899e-07
6.62089e-07
6.62088e-07
6.62088e-07
6.62088e-07
6.64282e-07
6.63824e-07
6.66792e-07
6.62089e-07
6.62087e-07
6.62087e-07
6.62088e-07
6.62087e-07
6.62088e-07
6.59865e-07
6.63964e-07
6.67092e-07
6.67219e-07
6.62089e-07
6.62089e-07
6.62088e-07
6.62089e-07
6.62088e-07
6.62089e-07
6.58271e-07
6.63937e-07
6.66649e-07
6.67316e-07
6.62089e-07
6.62087e-07
6.62087e-07
6.62089e-07
6.62086e-07
6.62089e-07
6.58343e-07
6.6318e-07
6.6634e-07
6.6209e-07
6.62088e-07
6.62088e-07
6.62089e-07
6.62088e-07
6.6209e-07
6.58656e-07
6.61507e-07
6.66507e-07
6.6428e-07
6.62088e-07
6.62088e-07
6.62089e-07
6.62088e-07
6.55673e-07
6.61237e-07
6.6454e-07
6.66846e-07
6.63822e-07
6.59864e-07
6.58266e-07
6.58338e-07
6.58647e-07
6.61233e-07
6.61614e-07
6.63959e-07
6.63935e-07
6.63178e-07
6.61498e-07
6.64452e-07
6.59613e-07
6.59167e-07
6.60725e-07
6.59317e-07
6.59738e-07
6.59833e-07
6.58855e-07
6.59026e-07
6.59364e-07
6.60743e-07
6.61504e-07
6.54605e-07
6.54605e-07
6.54605e-07
6.54605e-07
6.56799e-07
6.56341e-07
6.59308e-07
6.54605e-07
6.54606e-07
6.54605e-07
6.54605e-07
6.54606e-07
6.54605e-07
6.52384e-07
6.56481e-07
6.59609e-07
6.59736e-07
6.54605e-07
6.54605e-07
6.54606e-07
6.54606e-07
6.54605e-07
6.54605e-07
6.50788e-07
6.56455e-07
6.59166e-07
6.59833e-07
6.54605e-07
6.54605e-07
6.54606e-07
6.54606e-07
6.54605e-07
6.54606e-07
6.50862e-07
6.55698e-07
6.58856e-07
6.54605e-07
6.54606e-07
6.54605e-07
6.54605e-07
6.54606e-07
6.54605e-07
6.51174e-07
6.54024e-07
6.59024e-07
6.56797e-07
6.54605e-07
6.54606e-07
6.54605e-07
6.54605e-07
6.48191e-07
6.53754e-07
6.57057e-07
6.59363e-07
6.56339e-07
6.52382e-07
6.50783e-07
6.50855e-07
6.51165e-07
6.53751e-07
6.54132e-07
6.56476e-07
6.56452e-07
6.55695e-07
6.54015e-07
6.56971e-07
6.5213e-07
6.51684e-07
6.53239e-07
6.51834e-07
6.52256e-07
6.52351e-07
6.51373e-07
6.51541e-07
6.51879e-07
6.5326e-07
6.54021e-07
6.47122e-07
6.47122e-07
6.47122e-07
6.47122e-07
6.49316e-07
6.48857e-07
6.51825e-07
6.47122e-07
6.47122e-07
6.47122e-07
6.47123e-07
6.47123e-07
6.47122e-07
6.44901e-07
6.48999e-07
6.52126e-07
6.52253e-07
6.47122e-07
6.47122e-07
6.47123e-07
6.47123e-07
6.47123e-07
6.47123e-07
6.43306e-07
6.48972e-07
6.51683e-07
6.52351e-07
6.47122e-07
6.47122e-07
6.47123e-07
6.47123e-07
6.47123e-07
6.47123e-07
6.43379e-07
6.48216e-07
6.51373e-07
6.47122e-07
6.47123e-07
6.47123e-07
6.47123e-07
6.47123e-07
6.47122e-07
6.43691e-07
6.46541e-07
6.51542e-07
6.49314e-07
6.47122e-07
6.47122e-07
6.47122e-07
6.47122e-07
6.40708e-07
6.46271e-07
6.49573e-07
6.5188e-07
6.48856e-07
6.44899e-07
6.43301e-07
6.43373e-07
6.43682e-07
6.46268e-07
6.46649e-07
6.48993e-07
6.48969e-07
6.48213e-07
6.46533e-07
6.49487e-07
6.44652e-07
6.44204e-07
6.45738e-07
6.44357e-07
6.44776e-07
6.44869e-07
6.43893e-07
6.44058e-07
6.44397e-07
6.45776e-07
6.46537e-07
6.3964e-07
6.3964e-07
6.3964e-07
6.3964e-07
6.41834e-07
6.41375e-07
6.44342e-07
6.39639e-07
6.3964e-07
6.3964e-07
6.3964e-07
6.3964e-07
6.3964e-07
6.37418e-07
6.41516e-07
6.44643e-07
6.4477e-07
6.3964e-07
6.3964e-07
6.3964e-07
6.3964e-07
6.3964e-07
6.3964e-07
6.35823e-07
6.41489e-07
6.442e-07
6.44868e-07
6.3964e-07
6.3964e-07
6.39639e-07
6.39639e-07
6.3964e-07
6.3964e-07
6.35896e-07
6.40733e-07
6.4389e-07
6.3964e-07
6.3964e-07
6.3964e-07
6.3964e-07
6.3964e-07
6.3964e-07
6.36208e-07
6.39058e-07
6.44059e-07
6.41831e-07
6.3964e-07
6.3964e-07
6.3964e-07
6.3964e-07
6.33225e-07
6.38788e-07
6.4209e-07
6.44397e-07
6.41373e-07
6.37416e-07
6.35817e-07
6.35889e-07
6.36199e-07
6.38785e-07
6.39166e-07
6.4151e-07
6.41486e-07
6.40729e-07
6.3905e-07
6.42005e-07
6.37165e-07
6.36719e-07
6.38274e-07
6.36869e-07
6.37291e-07
6.37386e-07
6.3641e-07
6.36575e-07
6.36914e-07
6.38295e-07
6.39057e-07
6.32157e-07
6.32157e-07
6.32157e-07
6.32157e-07
6.34351e-07
6.33891e-07
6.3686e-07
6.32157e-07
6.32157e-07
6.32157e-07
6.32157e-07
6.32157e-07
6.32157e-07
6.29935e-07
6.34033e-07
6.3716e-07
6.37288e-07
6.32157e-07
6.32157e-07
6.32157e-07
6.32157e-07
6.32157e-07
6.32157e-07
6.2834e-07
6.34006e-07
6.36718e-07
6.37385e-07
6.32157e-07
6.32157e-07
6.32157e-07
6.32157e-07
6.32157e-07
6.32157e-07
6.28413e-07
6.3325e-07
6.36408e-07
6.32157e-07
6.32157e-07
6.32157e-07
6.32157e-07
6.32157e-07
6.32157e-07
6.28725e-07
6.31575e-07
6.36576e-07
6.34349e-07
6.32157e-07
6.32157e-07
6.32157e-07
6.32157e-07
6.25742e-07
6.31306e-07
6.34607e-07
6.36914e-07
6.33891e-07
6.29933e-07
6.28335e-07
6.28406e-07
6.28716e-07
6.31302e-07
6.31683e-07
6.34027e-07
6.34004e-07
6.33247e-07
6.31567e-07
6.34522e-07
6.29683e-07
6.29239e-07
6.30792e-07
6.29387e-07
6.29809e-07
6.29905e-07
6.2893e-07
6.29108e-07
6.29417e-07
6.30813e-07
6.31575e-07
6.24675e-07
6.24675e-07
6.24675e-07
6.24675e-07
6.26867e-07
6.26407e-07
6.29377e-07
6.24675e-07
6.24675e-07
6.24675e-07
6.24675e-07
6.24674e-07
6.24674e-07
6.22452e-07
6.26549e-07
6.29678e-07
6.29806e-07
6.24674e-07
6.24674e-07
6.24674e-07
6.24674e-07
6.24674e-07
6.24674e-07
6.20858e-07
6.26523e-07
6.29235e-07
6.29903e-07
6.24674e-07
6.24674e-07
6.24674e-07
6.24674e-07
6.24674e-07
6.24674e-07
6.20931e-07
6.25767e-07
6.28925e-07
6.24674e-07
6.24674e-07
6.24674e-07
6.24674e-07
6.24674e-07
6.24674e-07
6.21243e-07
6.24093e-07
6.29093e-07
6.26866e-07
6.24674e-07
6.24674e-07
6.24674e-07
6.24674e-07
6.18259e-07
6.23823e-07
6.27124e-07
6.29432e-07
6.26408e-07
6.22451e-07
6.20852e-07
6.20923e-07
6.21233e-07
6.23819e-07
6.24201e-07
6.26545e-07
6.26521e-07
6.25764e-07
6.24084e-07
6.27039e-07
6.222e-07
6.21754e-07
6.23309e-07
6.21904e-07
6.22325e-07
6.2242e-07
6.21444e-07
6.2161e-07
6.21949e-07
6.2333e-07
6.24091e-07
6.17192e-07
6.17192e-07
6.17192e-07
6.17192e-07
6.19385e-07
6.18926e-07
6.21895e-07
6.17192e-07
6.17192e-07
6.17192e-07
6.17192e-07
6.17192e-07
6.17192e-07
6.1497e-07
6.19067e-07
6.22195e-07
6.22323e-07
6.17192e-07
6.17192e-07
6.17192e-07
6.17192e-07
6.17192e-07
6.17192e-07
6.13375e-07
6.19041e-07
6.21753e-07
6.2242e-07
6.17192e-07
6.17192e-07
6.17192e-07
6.17192e-07
6.17192e-07
6.17192e-07
6.13448e-07
6.18285e-07
6.21442e-07
6.17192e-07
6.17192e-07
6.17192e-07
6.17192e-07
6.17192e-07
6.17192e-07
6.1376e-07
6.1661e-07
6.21611e-07
6.19383e-07
6.17192e-07
6.17192e-07
6.17192e-07
6.17192e-07
6.10777e-07
6.1634e-07
6.19642e-07
6.21949e-07
6.18925e-07
6.14968e-07
6.13369e-07
6.1344e-07
6.1375e-07
6.16337e-07
6.16718e-07
6.19062e-07
6.19038e-07
6.18281e-07
6.16601e-07
6.19556e-07
6.14717e-07
6.14271e-07
6.15826e-07
6.14421e-07
6.14842e-07
6.14937e-07
6.13961e-07
6.14128e-07
6.14466e-07
6.15847e-07
6.16608e-07
6.09709e-07
6.09709e-07
6.09709e-07
6.09709e-07
6.11902e-07
6.11444e-07
6.14412e-07
6.09709e-07
6.09709e-07
6.09709e-07
6.09709e-07
6.09709e-07
6.09709e-07
6.07487e-07
6.11585e-07
6.14712e-07
6.1484e-07
6.09709e-07
6.09709e-07
6.09709e-07
6.09709e-07
6.09709e-07
6.09709e-07
6.05893e-07
6.11558e-07
6.1427e-07
6.14937e-07
6.09709e-07
6.09709e-07
6.09709e-07
6.09709e-07
6.09709e-07
6.09709e-07
6.05965e-07
6.10802e-07
6.13959e-07
6.09709e-07
6.09709e-07
6.09709e-07
6.09709e-07
6.09709e-07
6.09709e-07
6.06277e-07
6.09127e-07
6.14128e-07
6.119e-07
6.09709e-07
6.09709e-07
6.09709e-07
6.09709e-07
6.03294e-07
6.08857e-07
6.12159e-07
6.14466e-07
6.11443e-07
6.07485e-07
6.05887e-07
6.05958e-07
6.06268e-07
6.08854e-07
6.09235e-07
6.11579e-07
6.11556e-07
6.10799e-07
6.09119e-07
6.12074e-07
6.07234e-07
6.06789e-07
6.08343e-07
6.06938e-07
6.0736e-07
6.07455e-07
6.06478e-07
6.06646e-07
6.06983e-07
6.08364e-07
6.09125e-07
6.02226e-07
6.02226e-07
6.02226e-07
6.02226e-07
6.04419e-07
6.03961e-07
6.06929e-07
6.02226e-07
6.02226e-07
6.02226e-07
6.02226e-07
6.02226e-07
6.02225e-07
6.00003e-07
6.04102e-07
6.07229e-07
6.07357e-07
6.02226e-07
6.02226e-07
6.02226e-07
6.02226e-07
6.02226e-07
6.02226e-07
5.98409e-07
6.04075e-07
6.06787e-07
6.07454e-07
6.02226e-07
6.02226e-07
6.02226e-07
6.02226e-07
6.02226e-07
6.02226e-07
5.98482e-07
6.03319e-07
6.06476e-07
6.02226e-07
6.02226e-07
6.02226e-07
6.02226e-07
6.02226e-07
6.02226e-07
5.98794e-07
6.01644e-07
6.06645e-07
6.04417e-07
6.02226e-07
6.02226e-07
6.02226e-07
6.02226e-07
5.95811e-07
6.01374e-07
6.04676e-07
6.06983e-07
6.03959e-07
6.00002e-07
5.98404e-07
5.98477e-07
5.98785e-07
6.01371e-07
6.01752e-07
6.04096e-07
6.04073e-07
6.03316e-07
6.01636e-07
6.04591e-07
5.9975e-07
5.99304e-07
6.0086e-07
5.99455e-07
5.99876e-07
5.9997e-07
5.98991e-07
5.99142e-07
5.99515e-07
6.00881e-07
6.01642e-07
5.94743e-07
5.94743e-07
5.94743e-07
5.94743e-07
5.96937e-07
5.96479e-07
5.99446e-07
5.94743e-07
5.94743e-07
5.94743e-07
5.94743e-07
5.94743e-07
5.94743e-07
5.9252e-07
5.96619e-07
5.99746e-07
5.99874e-07
5.94743e-07
5.94743e-07
5.94743e-07
5.94743e-07
5.94743e-07
5.94743e-07
5.90926e-07
5.96592e-07
5.99304e-07
5.99971e-07
5.94743e-07
5.94743e-07
5.94743e-07
5.94743e-07
5.94743e-07
5.94743e-07
5.90999e-07
5.95836e-07
5.98993e-07
5.94743e-07
5.94743e-07
5.94743e-07
5.94743e-07
5.94743e-07
5.94743e-07
5.91311e-07
5.94161e-07
5.99162e-07
5.96934e-07
5.94743e-07
5.94743e-07
5.94743e-07
5.94743e-07
5.88328e-07
5.93891e-07
5.97193e-07
5.995e-07
5.96476e-07
5.92519e-07
5.9092e-07
5.90992e-07
5.91301e-07
5.93888e-07
5.94269e-07
5.96613e-07
5.96589e-07
5.95831e-07
5.94151e-07
5.97105e-07
5.92267e-07
5.91821e-07
5.93377e-07
5.91972e-07
5.92393e-07
5.92487e-07
5.91508e-07
5.91659e-07
5.92033e-07
5.93398e-07
5.94159e-07
5.8726e-07
5.8726e-07
5.8726e-07
5.8726e-07
5.89454e-07
5.88996e-07
5.91963e-07
5.8726e-07
5.8726e-07
5.8726e-07
5.8726e-07
5.8726e-07
5.8726e-07
5.85037e-07
5.89136e-07
5.92263e-07
5.92391e-07
5.8726e-07
5.8726e-07
5.8726e-07
5.8726e-07
5.8726e-07
5.8726e-07
5.83444e-07
5.89109e-07
5.91821e-07
5.92488e-07
5.8726e-07
5.8726e-07
5.8726e-07
5.8726e-07
5.8726e-07
5.8726e-07
5.83516e-07
5.88353e-07
5.9151e-07
5.8726e-07
5.8726e-07
5.8726e-07
5.8726e-07
5.8726e-07
5.8726e-07
5.83828e-07
5.86678e-07
5.91679e-07
5.89451e-07
5.8726e-07
5.8726e-07
5.8726e-07
5.8726e-07
5.80845e-07
5.86409e-07
5.8971e-07
5.92017e-07
5.88994e-07
5.85036e-07
5.83439e-07
5.83511e-07
5.83819e-07
5.86405e-07
5.86786e-07
5.8913e-07
5.89107e-07
5.88349e-07
5.86669e-07
5.89625e-07
5.84784e-07
5.84338e-07
5.85894e-07
5.84489e-07
5.8491e-07
5.85004e-07
5.84025e-07
5.84176e-07
5.8455e-07
5.85915e-07
5.86676e-07
5.79777e-07
5.79777e-07
5.79777e-07
5.79777e-07
5.81972e-07
5.81513e-07
5.8448e-07
5.79777e-07
5.79777e-07
5.79777e-07
5.79777e-07
5.79777e-07
5.79777e-07
5.77555e-07
5.81653e-07
5.8478e-07
5.84908e-07
5.79777e-07
5.79777e-07
5.79777e-07
5.79777e-07
5.79777e-07
5.79777e-07
5.75961e-07
5.81627e-07
5.84338e-07
5.85005e-07
5.79777e-07
5.79777e-07
5.79777e-07
5.79777e-07
5.79777e-07
5.79777e-07
5.76034e-07
5.8087e-07
5.84028e-07
5.79777e-07
5.79777e-07
5.79777e-07
5.79777e-07
5.79777e-07
5.79777e-07
5.76345e-07
5.79195e-07
5.84196e-07
5.81969e-07
5.79777e-07
5.79777e-07
5.79777e-07
5.79777e-07
5.73362e-07
5.78926e-07
5.82227e-07
5.84534e-07
5.81511e-07
5.77554e-07
5.75956e-07
5.76028e-07
5.76336e-07
5.78922e-07
5.79303e-07
5.81648e-07
5.81624e-07
5.80867e-07
5.79186e-07
5.82142e-07
5.77301e-07
5.76855e-07
5.78411e-07
5.77005e-07
5.77427e-07
5.77521e-07
5.76541e-07
5.76692e-07
5.77067e-07
5.78432e-07
5.79193e-07
5.72294e-07
5.72294e-07
5.72294e-07
5.72294e-07
5.74489e-07
5.7403e-07
5.76997e-07
5.72294e-07
5.72294e-07
5.72294e-07
5.72294e-07
5.72294e-07
5.72294e-07
5.70072e-07
5.7417e-07
5.77298e-07
5.77425e-07
5.72294e-07
5.72294e-07
5.72294e-07
5.72294e-07
5.72294e-07
5.72294e-07
5.68478e-07
5.74144e-07
5.76855e-07
5.77522e-07
5.72294e-07
5.72294e-07
5.72294e-07
5.72294e-07
5.72294e-07
5.72294e-07
5.68551e-07
5.73387e-07
5.76545e-07
5.72294e-07
5.72294e-07
5.72294e-07
5.72294e-07
5.72294e-07
5.72294e-07
5.68862e-07
5.71712e-07
5.76713e-07
5.74486e-07
5.72294e-07
5.72294e-07
5.72294e-07
5.72294e-07
5.65879e-07
5.71443e-07
5.74744e-07
5.77051e-07
5.74028e-07
5.7007e-07
5.68473e-07
5.68545e-07
5.68853e-07
5.71439e-07
5.7182e-07
5.74164e-07
5.74141e-07
5.73384e-07
5.71703e-07
5.74657e-07
5.69818e-07
5.69372e-07
5.70927e-07
5.69522e-07
5.69944e-07
5.70038e-07
5.69058e-07
5.69209e-07
5.69584e-07
5.70949e-07
5.7171e-07
5.64811e-07
5.64811e-07
5.64811e-07
5.64811e-07
5.67006e-07
5.66547e-07
5.69514e-07
5.64811e-07
5.64811e-07
5.64811e-07
5.64811e-07
5.64811e-07
5.64811e-07
5.62588e-07
5.66687e-07
5.69814e-07
5.69942e-07
5.64811e-07
5.64811e-07
5.64811e-07
5.64811e-07
5.64811e-07
5.64811e-07
5.60995e-07
5.66661e-07
5.69372e-07
5.70039e-07
5.64811e-07
5.64811e-07
5.64811e-07
5.64811e-07
5.64811e-07
5.64811e-07
5.61067e-07
5.65904e-07
5.69061e-07
5.64811e-07
5.64811e-07
5.64811e-07
5.64811e-07
5.64811e-07
5.64811e-07
5.61379e-07
5.64229e-07
5.6923e-07
5.67002e-07
5.64811e-07
5.64811e-07
5.64811e-07
5.64811e-07
5.58396e-07
5.63959e-07
5.67261e-07
5.69568e-07
5.66544e-07
5.62587e-07
5.6099e-07
5.61062e-07
5.6137e-07
5.63956e-07
5.64337e-07
5.66681e-07
5.66658e-07
5.65901e-07
5.6422e-07
5.67173e-07
5.62335e-07
5.61888e-07
5.63444e-07
5.62039e-07
5.62461e-07
5.62555e-07
5.61575e-07
5.61725e-07
5.62101e-07
5.63466e-07
5.64227e-07
5.57327e-07
5.57327e-07
5.57328e-07
5.57328e-07
5.59523e-07
5.59064e-07
5.6203e-07
5.57327e-07
5.57328e-07
5.57328e-07
5.57328e-07
5.57328e-07
5.57328e-07
5.55106e-07
5.59205e-07
5.62331e-07
5.62459e-07
5.57328e-07
5.57328e-07
5.57328e-07
5.57328e-07
5.57328e-07
5.57328e-07
5.53512e-07
5.59177e-07
5.61889e-07
5.62556e-07
5.57328e-07
5.57328e-07
5.57328e-07
5.57328e-07
5.57328e-07
5.57328e-07
5.53584e-07
5.58421e-07
5.61578e-07
5.57328e-07
5.57328e-07
5.57328e-07
5.57328e-07
5.57328e-07
5.57328e-07
5.53896e-07
5.56746e-07
5.61747e-07
5.59519e-07
5.57328e-07
5.57328e-07
5.57328e-07
5.57328e-07
5.50913e-07
5.56476e-07
5.59778e-07
5.62085e-07
5.59061e-07
5.55104e-07
5.53507e-07
5.53579e-07
5.53887e-07
5.56473e-07
5.56854e-07
5.59198e-07
5.59175e-07
5.58417e-07
5.56736e-07
5.5969e-07
5.54852e-07
5.54405e-07
5.55961e-07
5.54556e-07
5.54977e-07
5.55071e-07
5.54092e-07
5.54243e-07
5.54618e-07
5.55983e-07
5.56744e-07
5.49844e-07
5.49844e-07
5.49844e-07
5.49844e-07
5.5204e-07
5.51581e-07
5.54547e-07
5.49844e-07
5.49844e-07
5.49844e-07
5.49844e-07
5.49844e-07
5.49844e-07
5.47622e-07
5.51722e-07
5.54848e-07
5.54976e-07
5.49844e-07
5.49844e-07
5.49844e-07
5.49844e-07
5.49844e-07
5.49844e-07
5.46028e-07
5.51694e-07
5.54406e-07
5.55073e-07
5.49844e-07
5.49845e-07
5.49845e-07
5.49845e-07
5.49845e-07
5.49845e-07
5.46101e-07
5.50938e-07
5.54095e-07
5.49844e-07
5.49845e-07
5.49845e-07
5.49845e-07
5.49845e-07
5.49845e-07
5.46413e-07
5.49263e-07
5.54264e-07
5.52036e-07
5.49845e-07
5.49845e-07
5.49845e-07
5.49845e-07
5.4343e-07
5.48993e-07
5.52295e-07
5.54602e-07
5.51578e-07
5.47621e-07
5.46024e-07
5.46095e-07
5.46404e-07
5.4899e-07
5.49371e-07
5.51715e-07
5.51692e-07
5.50934e-07
5.49253e-07
5.52207e-07
5.47368e-07
5.46921e-07
5.48478e-07
5.47072e-07
5.47494e-07
5.47587e-07
5.46607e-07
5.46759e-07
5.47135e-07
5.485e-07
5.49261e-07
5.42361e-07
5.42361e-07
5.42361e-07
5.42361e-07
5.44557e-07
5.44098e-07
5.47065e-07
5.42362e-07
5.42361e-07
5.42361e-07
5.42361e-07
5.42361e-07
5.42362e-07
5.4014e-07
5.44239e-07
5.47365e-07
5.47493e-07
5.42362e-07
5.42362e-07
5.42361e-07
5.42361e-07
5.42362e-07
5.42362e-07
5.38546e-07
5.44211e-07
5.46923e-07
5.4759e-07
5.42362e-07
5.42362e-07
5.42362e-07
5.42362e-07
5.42362e-07
5.42362e-07
5.38618e-07
5.43455e-07
5.46612e-07
5.42362e-07
5.42362e-07
5.42362e-07
5.42362e-07
5.42362e-07
5.42362e-07
5.3893e-07
5.4178e-07
5.46781e-07
5.44553e-07
5.42362e-07
5.42362e-07
5.42362e-07
5.42362e-07
5.35947e-07
5.4151e-07
5.44812e-07
5.47119e-07
5.44095e-07
5.40138e-07
5.38541e-07
5.38613e-07
5.38921e-07
5.41507e-07
5.41888e-07
5.44232e-07
5.44209e-07
5.43451e-07
5.4177e-07
5.44724e-07
5.39889e-07
5.39441e-07
5.40975e-07
5.39596e-07
5.40014e-07
5.40107e-07
5.39129e-07
5.39297e-07
5.39636e-07
5.41016e-07
5.41776e-07
5.34879e-07
5.34879e-07
5.34879e-07
5.34879e-07
5.37073e-07
5.36614e-07
5.39582e-07
5.34879e-07
5.34879e-07
5.34879e-07
5.34879e-07
5.34879e-07
5.34879e-07
5.32657e-07
5.36756e-07
5.39883e-07
5.4001e-07
5.34879e-07
5.34879e-07
5.34879e-07
5.34879e-07
5.34879e-07
5.34879e-07
5.31063e-07
5.36729e-07
5.3944e-07
5.40108e-07
5.34879e-07
5.34879e-07
5.34879e-07
5.34879e-07
5.34879e-07
5.34879e-07
5.31136e-07
5.35972e-07
5.3913e-07
5.34879e-07
5.34879e-07
5.34879e-07
5.34879e-07
5.34879e-07
5.34879e-07
5.31447e-07
5.34298e-07
5.39298e-07
5.37071e-07
5.34879e-07
5.34879e-07
5.34878e-07
5.34879e-07
5.28464e-07
5.34028e-07
5.37329e-07
5.39636e-07
5.36613e-07
5.32656e-07
5.31058e-07
5.3113e-07
5.31438e-07
5.34024e-07
5.34405e-07
5.36749e-07
5.36726e-07
5.35969e-07
5.34288e-07
5.37242e-07
5.32407e-07
5.31959e-07
5.33493e-07
5.32113e-07
5.32531e-07
5.32625e-07
5.31647e-07
5.31815e-07
5.32154e-07
5.33533e-07
5.34294e-07
5.27396e-07
5.27396e-07
5.27396e-07
5.27396e-07
5.29591e-07
5.29132e-07
5.32099e-07
5.27397e-07
5.27397e-07
5.27397e-07
5.27397e-07
5.27397e-07
5.27397e-07
5.25174e-07
5.29274e-07
5.324e-07
5.32528e-07
5.27397e-07
5.27397e-07
5.27397e-07
5.27397e-07
5.27397e-07
5.27397e-07
5.23581e-07
5.29246e-07
5.31958e-07
5.32624e-07
5.27397e-07
5.27397e-07
5.27397e-07
5.27397e-07
5.27397e-07
5.27397e-07
5.23654e-07
5.2849e-07
5.31647e-07
5.27397e-07
5.27397e-07
5.27397e-07
5.27397e-07
5.27397e-07
5.27397e-07
5.23965e-07
5.26815e-07
5.31816e-07
5.29588e-07
5.27397e-07
5.27397e-07
5.27397e-07
5.27397e-07
5.20982e-07
5.26546e-07
5.29847e-07
5.32154e-07
5.2913e-07
5.25172e-07
5.23575e-07
5.23646e-07
5.23955e-07
5.26542e-07
5.26923e-07
5.29267e-07
5.29243e-07
5.28486e-07
5.26805e-07
5.29759e-07
5.24926e-07
5.24478e-07
5.2601e-07
5.24632e-07
5.2505e-07
5.25144e-07
5.24168e-07
5.24357e-07
5.24658e-07
5.26051e-07
5.26812e-07
5.19915e-07
5.19915e-07
5.19915e-07
5.19915e-07
5.22106e-07
5.21648e-07
5.24617e-07
5.19914e-07
5.19915e-07
5.19915e-07
5.19915e-07
5.19915e-07
5.19915e-07
5.17692e-07
5.21792e-07
5.24918e-07
5.25045e-07
5.19914e-07
5.19914e-07
5.19915e-07
5.19915e-07
5.19915e-07
5.19915e-07
5.16098e-07
5.21764e-07
5.24475e-07
5.25142e-07
5.19914e-07
5.19914e-07
5.19915e-07
5.19915e-07
5.19915e-07
5.19915e-07
5.16171e-07
5.21008e-07
5.24165e-07
5.19914e-07
5.19915e-07
5.19915e-07
5.19915e-07
5.19915e-07
5.19915e-07
5.16483e-07
5.19333e-07
5.24333e-07
5.22106e-07
5.19914e-07
5.19914e-07
5.19915e-07
5.19915e-07
5.135e-07
5.19063e-07
5.22365e-07
5.24671e-07
5.21648e-07
5.1769e-07
5.16093e-07
5.16164e-07
5.16473e-07
5.1906e-07
5.19441e-07
5.21785e-07
5.21761e-07
5.21004e-07
5.19323e-07
5.22277e-07
5.17439e-07
5.16993e-07
5.18549e-07
5.17143e-07
5.17565e-07
5.1766e-07
5.16682e-07
5.16851e-07
5.17194e-07
5.1857e-07
5.19331e-07
5.12432e-07
5.12432e-07
5.12432e-07
5.12432e-07
5.14626e-07
5.14168e-07
5.17135e-07
5.12432e-07
5.12432e-07
5.12432e-07
5.12432e-07
5.12432e-07
5.12433e-07
5.1021e-07
5.1431e-07
5.17435e-07
5.17563e-07
5.12432e-07
5.12432e-07
5.12432e-07
5.12432e-07
5.12432e-07
5.12432e-07
5.08616e-07
5.14282e-07
5.16993e-07
5.17659e-07
5.12432e-07
5.12432e-07
5.12432e-07
5.12432e-07
5.12432e-07
5.12432e-07
5.08689e-07
5.13525e-07
5.16682e-07
5.12432e-07
5.12432e-07
5.12432e-07
5.12432e-07
5.12432e-07
5.12432e-07
5.09e-07
5.11851e-07
5.16851e-07
5.14623e-07
5.12432e-07
5.12432e-07
5.12432e-07
5.12432e-07
5.06017e-07
5.11581e-07
5.14882e-07
5.17189e-07
5.14165e-07
5.10207e-07
5.08612e-07
5.08682e-07
5.08991e-07
5.11577e-07
5.11958e-07
5.14303e-07
5.14279e-07
5.13522e-07
5.11841e-07
5.14795e-07
5.09958e-07
5.09512e-07
5.11066e-07
5.09661e-07
5.10082e-07
5.10178e-07
5.092e-07
5.09367e-07
5.09707e-07
5.11087e-07
5.11848e-07
5.04949e-07
5.0495e-07
5.0495e-07
5.04949e-07
5.07142e-07
5.06684e-07
5.09652e-07
5.04949e-07
5.04949e-07
5.04949e-07
5.04949e-07
5.04949e-07
5.04949e-07
5.02727e-07
5.06827e-07
5.09952e-07
5.1008e-07
5.04949e-07
5.04949e-07
5.04949e-07
5.04949e-07
5.04949e-07
5.04949e-07
5.01133e-07
5.06799e-07
5.0951e-07
5.10177e-07
5.04949e-07
5.04949e-07
5.04949e-07
5.04949e-07
5.04949e-07
5.04949e-07
5.01206e-07
5.06042e-07
5.09199e-07
5.04949e-07
5.04949e-07
5.04949e-07
5.04949e-07
5.04949e-07
5.04949e-07
5.01518e-07
5.04368e-07
5.09368e-07
5.0714e-07
5.04949e-07
5.04949e-07
5.04949e-07
5.04949e-07
4.98534e-07
5.04098e-07
5.074e-07
5.09706e-07
5.06682e-07
5.02724e-07
5.01129e-07
5.01199e-07
5.01508e-07
5.04094e-07
5.04475e-07
5.06819e-07
5.06796e-07
5.0604e-07
5.04358e-07
5.07312e-07
5.02476e-07
5.0203e-07
5.0358e-07
5.02178e-07
5.026e-07
5.02695e-07
5.01717e-07
5.01885e-07
5.02224e-07
5.03603e-07
5.04364e-07
4.97466e-07
4.97467e-07
4.97467e-07
4.97466e-07
4.99659e-07
4.99201e-07
5.02168e-07
4.97465e-07
4.97466e-07
4.97466e-07
4.97466e-07
4.97466e-07
4.97466e-07
4.95244e-07
4.99343e-07
5.02469e-07
5.02596e-07
4.97466e-07
4.97466e-07
4.97466e-07
4.97466e-07
4.97466e-07
4.97466e-07
4.9365e-07
4.99316e-07
5.02027e-07
5.02693e-07
4.97466e-07
4.97466e-07
4.97466e-07
4.97466e-07
4.97466e-07
4.97466e-07
4.93723e-07
4.98559e-07
5.01716e-07
4.97466e-07
4.97466e-07
4.97466e-07
4.97466e-07
4.97466e-07
4.97466e-07
4.94034e-07
4.96885e-07
5.01885e-07
4.99657e-07
4.97466e-07
4.97466e-07
4.97466e-07
4.97466e-07
4.91051e-07
4.96615e-07