/*--------------------------------*- C++ -*----------------------------------*\
| =========                 |                                                 |
| \\      /  F ield         | OpenFOAM: The Open Source CFD Toolbox           |
|  \\    /   O peration     | Version:  v2012                                 |
|   \\  /    A nd           | Website:  www.openfoam.com                      |
|    \\/     M anipulation  |                                                 |
\*---------------------------------------------------------------------------*/
FoamFile
{
    version     2.0;
    format      ascii;
    class       volScalarField;
    location    "0.265";
    object      p;
}
// * * * * * * * * * * * * * * * * * * * * * * * * * * * * * * * * * * * * * //

dimensions      [0 2 -2 0 0 0 0];


internalField   nonuniform List<scalar> 
189320
(
2.99767e-07
3.00891e-07
2.92224e-07
2.91723e-07
2.88757e-07
2.87903e-07
2.90481e-07
2.9166e-07
2.89268e-07
2.92224e-07
2.87634e-07
2.88094e-07
2.86949e-07
2.86688e-07
2.87564e-07
2.87957e-07
2.90563e-07
2.91744e-07
2.88089e-07
2.86332e-07
2.85575e-07
2.85428e-07
2.8595e-07
2.87163e-07
2.87707e-07
2.92482e-07
2.99652e-07
2.8875e-07
2.86949e-07
2.85575e-07
2.85017e-07
2.84925e-07
2.85249e-07
2.86181e-07
2.88154e-07
2.92216e-07
3.00779e-07
2.87875e-07
2.86682e-07
2.85431e-07
2.8493e-07
2.84842e-07
2.85123e-07
2.85937e-07
2.87943e-07
2.90236e-07
2.90465e-07
2.87565e-07
2.85958e-07
2.85259e-07
2.8513e-07
2.85563e-07
2.86648e-07
2.88108e-07
3.01831e-07
2.91655e-07
2.87964e-07
2.8718e-07
2.86205e-07
2.85959e-07
2.86661e-07
2.88035e-07
2.87604e-07
2.92159e-07
2.89271e-07
2.9058e-07
2.87741e-07
2.88199e-07
2.87992e-07
2.88142e-07
2.87624e-07
2.86675e-07
2.92491e-07
2.92263e-07
2.90355e-07
3.01894e-07
2.92203e-07
2.80573e-07
2.80359e-07
2.82352e-07
2.81507e-07
2.81627e-07
2.81468e-07
2.81439e-07
2.79798e-07
2.80549e-07
2.82524e-07
2.83792e-07
2.75902e-07
2.75432e-07
2.75439e-07
2.75901e-07
2.77615e-07
2.77514e-07
2.81716e-07
2.75892e-07
2.73794e-07
2.74287e-07
2.74281e-07
2.73806e-07
2.75934e-07
2.72644e-07
2.76205e-07
2.80642e-07
2.81718e-07
2.75454e-07
2.74285e-07
2.74506e-07
2.74505e-07
2.74298e-07
2.75454e-07
2.72165e-07
2.75716e-07
2.80391e-07
2.81507e-07
2.75465e-07
2.74297e-07
2.74515e-07
2.74516e-07
2.7431e-07
2.75464e-07
2.71951e-07
2.77004e-07
2.81424e-07
2.75935e-07
2.73836e-07
2.74323e-07
2.74312e-07
2.73837e-07
2.75952e-07
2.72046e-07
2.72739e-07
2.7973e-07
2.77878e-07
2.75976e-07
2.75507e-07
2.75506e-07
2.75952e-07
2.65471e-07
2.73725e-07
2.7794e-07
2.80522e-07
2.77631e-07
2.72801e-07
2.72258e-07
2.72065e-07
2.72283e-07
2.7459e-07
2.73203e-07
2.76318e-07
2.75829e-07
2.77123e-07
2.72913e-07
2.78212e-07
2.77173e-07
2.76693e-07
2.78789e-07
2.78589e-07
2.79043e-07
2.79288e-07
2.78345e-07
2.7625e-07
2.76693e-07
2.78795e-07
2.81917e-07
2.73914e-07
2.73769e-07
2.73768e-07
2.73918e-07
2.74804e-07
2.74069e-07
2.78595e-07
2.73914e-07
2.72655e-07
2.72644e-07
2.72635e-07
2.72659e-07
2.73912e-07
2.68258e-07
2.7225e-07
2.77184e-07
2.79049e-07
2.73771e-07
2.72637e-07
2.72649e-07
2.72643e-07
2.7264e-07
2.73764e-07
2.66173e-07
2.72526e-07
2.76702e-07
2.79289e-07
2.73777e-07
2.72639e-07
2.72648e-07
2.72647e-07
2.72645e-07
2.73769e-07
2.66147e-07
2.73219e-07
2.78325e-07
2.73923e-07
2.72666e-07
2.72651e-07
2.72642e-07
2.72668e-07
2.73925e-07
2.66561e-07
2.6911e-07
2.76282e-07
2.74874e-07
2.73936e-07
2.73785e-07
2.73784e-07
2.73934e-07
2.61974e-07
2.69963e-07
2.73547e-07
2.76743e-07
2.74118e-07
2.68302e-07
2.66213e-07
2.66184e-07
2.66609e-07
2.69939e-07
2.69019e-07
2.72291e-07
2.72566e-07
2.73258e-07
2.69155e-07
2.73582e-07
2.74157e-07
2.73668e-07
2.75829e-07
2.75731e-07
2.76294e-07
2.76632e-07
2.75414e-07
2.73328e-07
2.73712e-07
2.75831e-07
2.79397e-07
2.71285e-07
2.71242e-07
2.71241e-07
2.71281e-07
2.71875e-07
2.71092e-07
2.75728e-07
2.71286e-07
2.70812e-07
2.70778e-07
2.70774e-07
2.7081e-07
2.71286e-07
2.65103e-07
2.69208e-07
2.74162e-07
2.76305e-07
2.71249e-07
2.70777e-07
2.70759e-07
2.70756e-07
2.70776e-07
2.71242e-07
2.62706e-07
2.69428e-07
2.73673e-07
2.7664e-07
2.71248e-07
2.70775e-07
2.70757e-07
2.70756e-07
2.70778e-07
2.71245e-07
2.62666e-07
2.70139e-07
2.75421e-07
2.71289e-07
2.70813e-07
2.70779e-07
2.70776e-07
2.70814e-07
2.71286e-07
2.63126e-07
2.66006e-07
2.73333e-07
2.71883e-07
2.71292e-07
2.71252e-07
2.71249e-07
2.71289e-07
2.58613e-07
2.67064e-07
2.70461e-07
2.73721e-07
2.711e-07
2.65116e-07
2.62708e-07
2.62665e-07
2.63113e-07
2.67063e-07
2.65969e-07
2.69229e-07
2.69438e-07
2.70169e-07
2.66016e-07
2.70469e-07
2.71414e-07
2.70922e-07
2.7308e-07
2.73036e-07
2.73701e-07
2.74025e-07
2.72682e-07
2.70582e-07
2.70946e-07
2.73072e-07
2.76782e-07
2.6864e-07
2.68629e-07
2.68629e-07
2.6864e-07
2.69107e-07
2.6832e-07
2.73031e-07
2.68639e-07
2.68469e-07
2.68457e-07
2.68455e-07
2.68468e-07
2.68638e-07
2.62323e-07
2.66452e-07
2.71425e-07
2.73665e-07
2.68628e-07
2.68456e-07
2.6845e-07
2.68448e-07
2.68456e-07
2.68629e-07
2.5986e-07
2.66673e-07
2.70935e-07
2.74025e-07
2.68629e-07
2.68457e-07
2.68449e-07
2.68447e-07
2.68457e-07
2.68629e-07
2.59842e-07
2.67406e-07
2.72683e-07
2.6864e-07
2.68469e-07
2.68457e-07
2.68454e-07
2.68468e-07
2.6864e-07
2.60386e-07
2.63234e-07
2.70586e-07
2.69114e-07
2.68641e-07
2.6863e-07
2.6863e-07
2.6864e-07
2.55767e-07
2.64317e-07
2.67676e-07
2.70951e-07
2.68322e-07
2.62328e-07
2.59857e-07
2.59837e-07
2.6038e-07
2.64316e-07
2.63188e-07
2.66461e-07
2.66677e-07
2.67418e-07
2.6324e-07
2.67682e-07
2.68758e-07
2.68268e-07
2.70413e-07
2.70392e-07
2.71084e-07
2.71404e-07
2.70019e-07
2.67919e-07
2.68277e-07
2.70411e-07
2.74169e-07
2.6601e-07
2.66007e-07
2.66007e-07
2.6601e-07
2.66441e-07
2.65649e-07
2.70389e-07
2.66008e-07
2.65948e-07
2.65942e-07
2.65942e-07
2.65947e-07
2.66008e-07
2.59659e-07
2.63802e-07
2.68768e-07
2.71055e-07
2.66006e-07
2.65942e-07
2.6594e-07
2.6594e-07
2.65942e-07
2.66006e-07
2.57167e-07
2.64006e-07
2.68279e-07
2.71406e-07
2.66008e-07
2.65942e-07
2.6594e-07
2.65941e-07
2.65943e-07
2.66007e-07
2.57162e-07
2.64749e-07
2.70022e-07
2.6601e-07
2.65948e-07
2.65942e-07
2.65942e-07
2.65949e-07
2.6601e-07
2.57737e-07
2.60568e-07
2.67919e-07
2.6644e-07
2.66009e-07
2.66007e-07
2.66007e-07
2.66009e-07
2.5307e-07
2.61653e-07
2.65007e-07
2.68278e-07
2.65653e-07
2.5966e-07
2.57165e-07
2.57155e-07
2.57727e-07
2.61649e-07
2.60505e-07
2.63794e-07
2.6401e-07
2.64755e-07
2.60569e-07
2.6501e-07
2.66129e-07
2.65636e-07
2.67778e-07
2.67769e-07
2.68457e-07
2.68798e-07
2.67393e-07
2.65289e-07
2.65645e-07
2.67778e-07
2.71554e-07
2.63384e-07
2.63391e-07
2.6339e-07
2.63385e-07
2.63808e-07
2.63015e-07
2.67771e-07
2.63388e-07
2.63366e-07
2.63365e-07
2.63365e-07
2.63366e-07
2.6339e-07
2.57025e-07
2.61163e-07
2.66129e-07
2.6848e-07
2.63391e-07
2.63364e-07
2.63364e-07
2.63364e-07
2.63364e-07
2.63388e-07
2.5453e-07
2.61376e-07
2.65639e-07
2.68793e-07
2.63389e-07
2.63364e-07
2.63363e-07
2.63364e-07
2.63364e-07
2.63388e-07
2.54532e-07
2.62123e-07
2.67385e-07
2.63389e-07
2.63367e-07
2.63365e-07
2.63365e-07
2.63367e-07
2.63387e-07
2.55112e-07
2.57935e-07
2.65286e-07
2.63807e-07
2.63387e-07
2.63388e-07
2.63388e-07
2.63387e-07
2.50427e-07
2.59029e-07
2.62372e-07
2.65642e-07
2.63011e-07
2.57027e-07
2.54528e-07
2.54531e-07
2.55106e-07
2.5902e-07
2.57865e-07
2.61152e-07
2.61376e-07
2.6212e-07
2.57929e-07
2.62373e-07
2.63508e-07
2.63014e-07
2.65158e-07
2.65153e-07
2.65864e-07
2.66179e-07
2.64767e-07
2.62665e-07
2.63021e-07
2.65155e-07
2.68937e-07
2.60768e-07
2.60765e-07
2.60765e-07
2.60768e-07
2.61185e-07
2.60393e-07
2.65148e-07
2.60766e-07
2.6076e-07
2.60759e-07
2.60759e-07
2.60762e-07
2.60767e-07
2.5441e-07
2.58543e-07
2.63509e-07
2.65839e-07
2.60765e-07
2.6076e-07
2.60759e-07
2.60758e-07
2.6076e-07
2.60767e-07
2.51921e-07
2.58758e-07
2.63017e-07
2.66179e-07
2.60766e-07
2.60759e-07
2.60759e-07
2.60758e-07
2.6076e-07
2.60767e-07
2.5192e-07
2.59493e-07
2.64769e-07
2.60767e-07
2.60761e-07
2.6076e-07
2.6076e-07
2.60761e-07
2.60767e-07
2.52503e-07
2.55311e-07
2.62665e-07
2.61184e-07
2.60767e-07
2.60766e-07
2.60766e-07
2.60768e-07
2.478e-07
2.56404e-07
2.59747e-07
2.63018e-07
2.60388e-07
2.54404e-07
2.51904e-07
2.51906e-07
2.52485e-07
2.56395e-07
2.55242e-07
2.58531e-07
2.58752e-07
2.59502e-07
2.55305e-07
2.59747e-07
2.60887e-07
2.60393e-07
2.62536e-07
2.62531e-07
2.63243e-07
2.63561e-07
2.62147e-07
2.60044e-07
2.60399e-07
2.62533e-07
2.6632e-07
2.58146e-07
2.58147e-07
2.58147e-07
2.58148e-07
2.58562e-07
2.57769e-07
2.62529e-07
2.58149e-07
2.58143e-07
2.58142e-07
2.58142e-07
2.58143e-07
2.58144e-07
2.51786e-07
2.5592e-07
2.60888e-07
2.63223e-07
2.58147e-07
2.58141e-07
2.58142e-07
2.58142e-07
2.58143e-07
2.58145e-07
2.49294e-07
2.56135e-07
2.60396e-07
2.63561e-07
2.58147e-07
2.58144e-07
2.58144e-07
2.58143e-07
2.58143e-07
2.58146e-07
2.49296e-07
2.5687e-07
2.62147e-07
2.58145e-07
2.5814e-07
2.58139e-07
2.58141e-07
2.58142e-07
2.58147e-07
2.49881e-07
2.5269e-07
2.60044e-07
2.5856e-07
2.58149e-07
2.58148e-07
2.58148e-07
2.58149e-07
2.45179e-07
2.53782e-07
2.57125e-07
2.60396e-07
2.57766e-07
2.51783e-07
2.49282e-07
2.49285e-07
2.49865e-07
2.53774e-07
2.52619e-07
2.55912e-07
2.56134e-07
2.56881e-07
2.52687e-07
2.57128e-07
2.58265e-07
2.57772e-07
2.59914e-07
2.59912e-07
2.60625e-07
2.60941e-07
2.59524e-07
2.57422e-07
2.57776e-07
2.59912e-07
2.637e-07
2.55526e-07
2.55526e-07
2.55525e-07
2.55525e-07
2.55939e-07
2.55147e-07
2.59908e-07
2.55525e-07
2.55523e-07
2.55522e-07
2.55524e-07
2.55524e-07
2.55525e-07
2.49163e-07
2.53298e-07
2.58267e-07
2.60604e-07
2.55526e-07
2.55525e-07
2.55524e-07
2.55525e-07
2.55524e-07
2.55526e-07
2.46673e-07
2.53513e-07
2.57775e-07
2.60941e-07
2.55525e-07
2.55523e-07
2.55523e-07
2.55524e-07
2.55521e-07
2.55525e-07
2.46675e-07
2.54248e-07
2.59525e-07
2.55527e-07
2.55524e-07
2.55524e-07
2.55525e-07
2.55524e-07
2.55527e-07
2.4726e-07
2.50067e-07
2.57422e-07
2.55936e-07
2.55525e-07
2.55525e-07
2.55525e-07
2.55525e-07
2.42558e-07
2.5116e-07
2.54502e-07
2.57774e-07
2.55144e-07
2.49163e-07
2.46666e-07
2.46665e-07
2.47243e-07
2.51152e-07
2.49996e-07
2.53289e-07
2.53513e-07
2.54256e-07
2.50063e-07
2.54505e-07
2.55644e-07
2.55151e-07
2.57296e-07
2.57293e-07
2.58004e-07
2.58319e-07
2.56902e-07
2.54803e-07
2.55155e-07
2.57291e-07
2.61076e-07
2.52903e-07
2.52903e-07
2.52903e-07
2.52903e-07
2.53317e-07
2.52525e-07
2.57287e-07
2.52903e-07
2.52904e-07
2.52903e-07
2.52903e-07
2.52904e-07
2.52903e-07
2.46543e-07
2.50677e-07
2.55646e-07
2.57982e-07
2.52903e-07
2.52903e-07
2.52903e-07
2.52903e-07
2.52903e-07
2.52903e-07
2.44052e-07
2.50892e-07
2.55153e-07
2.58319e-07
2.52903e-07
2.52903e-07
2.52903e-07
2.52903e-07
2.52903e-07
2.52904e-07
2.44055e-07
2.51629e-07
2.56902e-07
2.52903e-07
2.52904e-07
2.52904e-07
2.52903e-07
2.52904e-07
2.52903e-07
2.4464e-07
2.47446e-07
2.548e-07
2.53314e-07
2.52903e-07
2.52904e-07
2.52903e-07
2.52903e-07
2.39937e-07
2.48539e-07
2.51881e-07
2.55153e-07
2.52522e-07
2.46541e-07
2.44044e-07
2.44043e-07
2.44622e-07
2.48531e-07
2.47375e-07
2.50668e-07
2.50891e-07
2.51635e-07
2.47441e-07
2.51883e-07
2.53022e-07
2.52529e-07
2.54669e-07
2.54672e-07
2.55382e-07
2.55697e-07
2.5428e-07
2.52179e-07
2.52531e-07
2.54669e-07
2.58455e-07
2.50282e-07
2.50282e-07
2.50282e-07
2.50282e-07
2.50695e-07
2.49902e-07
2.54665e-07
2.50282e-07
2.50282e-07
2.50282e-07
2.50282e-07
2.50282e-07
2.50282e-07
2.43921e-07
2.48055e-07
2.53024e-07
2.55361e-07
2.50282e-07
2.50282e-07
2.50282e-07
2.50282e-07
2.50282e-07
2.50282e-07
2.41432e-07
2.48271e-07
2.52532e-07
2.55698e-07
2.50282e-07
2.50282e-07
2.50282e-07
2.50282e-07
2.50282e-07
2.50282e-07
2.41434e-07
2.49007e-07
2.5428e-07
2.50282e-07
2.50282e-07
2.50282e-07
2.50282e-07
2.50282e-07
2.50282e-07
2.42018e-07
2.44824e-07
2.52178e-07
2.50692e-07
2.50282e-07
2.50282e-07
2.50281e-07
2.50282e-07
2.37315e-07
2.45917e-07
2.49259e-07
2.52531e-07
2.499e-07
2.43919e-07
2.41424e-07
2.41422e-07
2.42e-07
2.45909e-07
2.44753e-07
2.48045e-07
2.48269e-07
2.49013e-07
2.44819e-07
2.49261e-07
2.50402e-07
2.49908e-07
2.52051e-07
2.52051e-07
2.52762e-07
2.53077e-07
2.5166e-07
2.49557e-07
2.49909e-07
2.52048e-07
2.55835e-07
2.47661e-07
2.47661e-07
2.47661e-07
2.47661e-07
2.48072e-07
2.47281e-07
2.52044e-07
2.47661e-07
2.47661e-07
2.47661e-07
2.47661e-07
2.47661e-07
2.47661e-07
2.413e-07
2.45434e-07
2.50403e-07
2.5274e-07
2.47661e-07
2.47661e-07
2.47661e-07
2.47661e-07
2.47661e-07
2.47661e-07
2.3881e-07
2.4565e-07
2.49911e-07
2.53077e-07
2.47661e-07
2.47661e-07
2.47661e-07
2.47661e-07
2.47661e-07
2.47661e-07
2.38813e-07
2.46386e-07
2.51659e-07
2.47661e-07
2.47661e-07
2.47661e-07
2.47661e-07
2.47661e-07
2.47661e-07
2.39396e-07
2.42203e-07
2.49557e-07
2.48071e-07
2.47661e-07
2.47661e-07
2.47661e-07
2.47661e-07
2.34693e-07
2.43296e-07
2.46638e-07
2.4991e-07
2.47279e-07
2.41298e-07
2.38802e-07
2.38799e-07
2.39379e-07
2.43288e-07
2.42132e-07
2.45424e-07
2.45648e-07
2.46392e-07
2.42198e-07
2.4664e-07
2.47781e-07
2.47287e-07
2.49428e-07
2.4943e-07
2.50141e-07
2.50456e-07
2.49039e-07
2.46936e-07
2.47289e-07
2.49427e-07
2.53214e-07
2.4504e-07
2.4504e-07
2.4504e-07
2.4504e-07
2.45452e-07
2.4466e-07
2.49423e-07
2.4504e-07
2.4504e-07
2.4504e-07
2.4504e-07
2.4504e-07
2.4504e-07
2.3868e-07
2.42813e-07
2.47782e-07
2.50119e-07
2.4504e-07
2.4504e-07
2.4504e-07
2.4504e-07
2.4504e-07
2.4504e-07
2.3619e-07
2.43029e-07
2.4729e-07
2.50456e-07
2.4504e-07
2.4504e-07
2.4504e-07
2.4504e-07
2.4504e-07
2.4504e-07
2.36192e-07
2.43765e-07
2.49038e-07
2.4504e-07
2.4504e-07
2.4504e-07
2.4504e-07
2.4504e-07
2.4504e-07
2.36776e-07
2.39582e-07
2.46936e-07
2.4545e-07
2.4504e-07
2.4504e-07
2.4504e-07
2.4504e-07
2.32073e-07
2.40675e-07
2.44017e-07
2.47289e-07
2.44658e-07
2.38677e-07
2.36181e-07
2.36178e-07
2.36758e-07
2.40667e-07
2.39511e-07
2.42803e-07
2.43027e-07
2.43771e-07
2.39577e-07
2.44019e-07
2.4516e-07
2.44666e-07
2.46807e-07
2.46809e-07
2.47519e-07
2.47835e-07
2.46418e-07
2.44316e-07
2.44669e-07
2.46806e-07
2.50593e-07
2.42419e-07
2.42419e-07
2.42419e-07
2.42419e-07
2.42831e-07
2.4204e-07
2.46802e-07
2.42419e-07
2.42419e-07
2.42419e-07
2.42419e-07
2.42419e-07
2.42419e-07
2.36059e-07
2.40192e-07
2.45161e-07
2.47498e-07
2.42419e-07
2.42419e-07
2.42419e-07
2.42419e-07
2.42419e-07
2.42419e-07
2.33569e-07
2.40408e-07
2.44669e-07
2.47835e-07
2.42419e-07
2.42419e-07
2.42419e-07
2.42419e-07
2.42419e-07
2.42419e-07
2.33571e-07
2.41144e-07
2.46417e-07
2.42419e-07
2.42419e-07
2.42419e-07
2.42419e-07
2.42419e-07
2.42419e-07
2.34154e-07
2.36961e-07
2.44315e-07
2.42829e-07
2.42419e-07
2.42419e-07
2.42419e-07
2.42419e-07
2.29451e-07
2.38054e-07
2.41396e-07
2.44668e-07
2.42037e-07
2.36056e-07
2.3356e-07
2.33557e-07
2.34137e-07
2.38046e-07
2.3689e-07
2.40182e-07
2.40406e-07
2.4115e-07
2.36956e-07
2.41398e-07
2.42537e-07
2.42044e-07
2.44185e-07
2.44187e-07
2.44897e-07
2.45212e-07
2.43796e-07
2.41693e-07
2.42045e-07
2.44184e-07
2.4797e-07
2.39797e-07
2.39797e-07
2.39797e-07
2.39797e-07
2.40208e-07
2.39417e-07
2.4418e-07
2.39797e-07
2.39797e-07
2.39797e-07
2.39797e-07
2.39797e-07
2.39797e-07
2.33436e-07
2.3757e-07
2.42539e-07
2.44876e-07
2.39797e-07
2.39797e-07
2.39797e-07
2.39797e-07
2.39797e-07
2.39797e-07
2.30947e-07
2.37786e-07
2.42047e-07
2.45213e-07
2.39797e-07
2.39797e-07
2.39797e-07
2.39797e-07
2.39797e-07
2.39797e-07
2.30949e-07
2.38522e-07
2.43795e-07
2.39797e-07
2.39797e-07
2.39797e-07
2.39797e-07
2.39797e-07
2.39797e-07
2.31533e-07
2.34339e-07
2.41693e-07
2.40207e-07
2.39797e-07
2.39797e-07
2.39797e-07
2.39797e-07
2.26829e-07
2.35432e-07
2.38774e-07
2.42046e-07
2.39415e-07
2.33434e-07
2.30937e-07
2.30934e-07
2.31514e-07
2.35423e-07
2.34268e-07
2.3756e-07
2.37784e-07
2.38529e-07
2.34334e-07
2.38776e-07
2.39915e-07
2.39422e-07
2.41563e-07
2.41565e-07
2.42276e-07
2.42591e-07
2.41174e-07
2.39073e-07
2.39424e-07
2.41562e-07
2.45348e-07
2.37175e-07
2.37176e-07
2.37176e-07
2.37175e-07
2.37587e-07
2.36796e-07
2.41559e-07
2.37175e-07
2.37175e-07
2.37175e-07
2.37175e-07
2.37175e-07
2.37175e-07
2.30815e-07
2.34948e-07
2.39917e-07
2.42254e-07
2.37175e-07
2.37175e-07
2.37175e-07
2.37175e-07
2.37175e-07
2.37175e-07
2.28325e-07
2.35164e-07
2.39425e-07
2.42592e-07
2.37175e-07
2.37175e-07
2.37175e-07
2.37175e-07
2.37175e-07
2.37175e-07
2.28328e-07
2.359e-07
2.41174e-07
2.37175e-07
2.37176e-07
2.37175e-07
2.37175e-07
2.37175e-07
2.37175e-07
2.28911e-07
2.31717e-07
2.39072e-07
2.37585e-07
2.37176e-07
2.37176e-07
2.37176e-07
2.37175e-07
2.24208e-07
2.3281e-07
2.36152e-07
2.39424e-07
2.36793e-07
2.30813e-07
2.28317e-07
2.28316e-07
2.28896e-07
2.32803e-07
2.31646e-07
2.34939e-07
2.35162e-07
2.35904e-07
2.31713e-07
2.36155e-07
2.37294e-07
2.36801e-07
2.38942e-07
2.38944e-07
2.39655e-07
2.3997e-07
2.38553e-07
2.36452e-07
2.36803e-07
2.38941e-07
2.42727e-07
2.34554e-07
2.34554e-07
2.34554e-07
2.34554e-07
2.34966e-07
2.34175e-07
2.38938e-07
2.34554e-07
2.34554e-07
2.34554e-07
2.34554e-07
2.34554e-07
2.34554e-07
2.28192e-07
2.32327e-07
2.37296e-07
2.39633e-07
2.34554e-07
2.34554e-07
2.34554e-07
2.34554e-07
2.34554e-07
2.34554e-07
2.25704e-07
2.32543e-07
2.36804e-07
2.39971e-07
2.34554e-07
2.34554e-07
2.34554e-07
2.34554e-07
2.34554e-07
2.34554e-07
2.25706e-07
2.33279e-07
2.38553e-07
2.34554e-07
2.34554e-07
2.34554e-07
2.34554e-07
2.34554e-07
2.34554e-07
2.2629e-07
2.29096e-07
2.36451e-07
2.34964e-07
2.34554e-07
2.34554e-07
2.34554e-07
2.34554e-07
2.21587e-07
2.30189e-07
2.33531e-07
2.36803e-07
2.34173e-07
2.28192e-07
2.25696e-07
2.25697e-07
2.26275e-07
2.30181e-07
2.29025e-07
2.32318e-07
2.32541e-07
2.33283e-07
2.29091e-07
2.33533e-07
2.34673e-07
2.3418e-07
2.36321e-07
2.36323e-07
2.37033e-07
2.37349e-07
2.35932e-07
2.3383e-07
2.34181e-07
2.3632e-07
2.40106e-07
2.31933e-07
2.31933e-07
2.31933e-07
2.31933e-07
2.32344e-07
2.31554e-07
2.36316e-07
2.31933e-07
2.31933e-07
2.31933e-07
2.31933e-07
2.31933e-07
2.31933e-07
2.25571e-07
2.29706e-07
2.34675e-07
2.37012e-07
2.31933e-07
2.31933e-07
2.31933e-07
2.31933e-07
2.31933e-07
2.31933e-07
2.23083e-07
2.29922e-07
2.34183e-07
2.3735e-07
2.31933e-07
2.31933e-07
2.31933e-07
2.31933e-07
2.31933e-07
2.31933e-07
2.23085e-07
2.30658e-07
2.35932e-07
2.31933e-07
2.31933e-07
2.31933e-07
2.31933e-07
2.31933e-07
2.31933e-07
2.23669e-07
2.26475e-07
2.3383e-07
2.32343e-07
2.31933e-07
2.31933e-07
2.31933e-07
2.31933e-07
2.18965e-07
2.27568e-07
2.3091e-07
2.34182e-07
2.31551e-07
2.2557e-07
2.23073e-07
2.23073e-07
2.23653e-07
2.2756e-07
2.26404e-07
2.29696e-07
2.2992e-07
2.3066e-07
2.26469e-07
2.30912e-07
2.32052e-07
2.31559e-07
2.33699e-07
2.33701e-07
2.34412e-07
2.34727e-07
2.3331e-07
2.31208e-07
2.31561e-07
2.33699e-07
2.37485e-07
2.29311e-07
2.29311e-07
2.29311e-07
2.29311e-07
2.29723e-07
2.28932e-07
2.33695e-07
2.29312e-07
2.29312e-07
2.29312e-07
2.29312e-07
2.29312e-07
2.29311e-07
2.2295e-07
2.27084e-07
2.32054e-07
2.34391e-07
2.29312e-07
2.29312e-07
2.29312e-07
2.29312e-07
2.29312e-07
2.29311e-07
2.20461e-07
2.273e-07
2.31562e-07
2.34728e-07
2.29312e-07
2.29312e-07
2.29312e-07
2.29312e-07
2.29312e-07
2.29311e-07
2.20464e-07
2.28036e-07
2.3331e-07
2.29312e-07
2.29312e-07
2.29312e-07
2.29312e-07
2.29312e-07
2.29311e-07
2.21047e-07
2.23853e-07
2.31208e-07
2.29722e-07
2.29312e-07
2.29312e-07
2.29312e-07
2.29312e-07
2.16344e-07
2.24947e-07
2.28288e-07
2.31561e-07
2.2893e-07
2.22949e-07
2.20455e-07
2.20454e-07
2.21032e-07
2.24939e-07
2.23783e-07
2.27075e-07
2.27299e-07
2.2804e-07
2.23847e-07
2.28291e-07
2.29431e-07
2.28938e-07
2.31078e-07
2.3108e-07
2.31791e-07
2.32106e-07
2.30689e-07
2.28586e-07
2.2894e-07
2.31078e-07
2.34864e-07
2.2669e-07
2.2669e-07
2.2669e-07
2.2669e-07
2.27103e-07
2.26311e-07
2.31074e-07
2.26691e-07
2.26691e-07
2.26691e-07
2.2669e-07
2.2669e-07
2.2669e-07
2.20329e-07
2.24463e-07
2.29433e-07
2.3177e-07
2.2669e-07
2.26691e-07
2.26691e-07
2.2669e-07
2.2669e-07
2.2669e-07
2.1784e-07
2.24679e-07
2.28941e-07
2.32107e-07
2.26691e-07
2.26691e-07
2.26691e-07
2.2669e-07
2.2669e-07
2.2669e-07
2.17843e-07
2.25415e-07
2.30689e-07
2.2669e-07
2.26691e-07
2.26691e-07
2.2669e-07
2.2669e-07
2.2669e-07
2.18426e-07
2.21232e-07
2.28587e-07
2.271e-07
2.26691e-07
2.2669e-07
2.2669e-07
2.2669e-07
2.13723e-07
2.22325e-07
2.25667e-07
2.2894e-07
2.26309e-07
2.20328e-07
2.17834e-07
2.17831e-07
2.18408e-07
2.22317e-07
2.21161e-07
2.24454e-07
2.24678e-07
2.25421e-07
2.21226e-07
2.25669e-07
2.2681e-07
2.26317e-07
2.28457e-07
2.28459e-07
2.2917e-07
2.29485e-07
2.28068e-07
2.25964e-07
2.26319e-07
2.28457e-07
2.32243e-07
2.2407e-07
2.2407e-07
2.2407e-07
2.24069e-07
2.24482e-07
2.2369e-07
2.28453e-07
2.2407e-07
2.2407e-07
2.2407e-07
2.2407e-07
2.2407e-07
2.24069e-07
2.17708e-07
2.21842e-07
2.26812e-07
2.29149e-07
2.2407e-07
2.2407e-07
2.2407e-07
2.2407e-07
2.2407e-07
2.24069e-07
2.15219e-07
2.22058e-07
2.2632e-07
2.29486e-07
2.2407e-07
2.2407e-07
2.2407e-07
2.2407e-07
2.2407e-07
2.24069e-07
2.15222e-07
2.22795e-07
2.28068e-07
2.2407e-07
2.2407e-07
2.2407e-07
2.2407e-07
2.2407e-07
2.24069e-07
2.15805e-07
2.18611e-07
2.25966e-07
2.2448e-07
2.2407e-07
2.2407e-07
2.24069e-07
2.24069e-07
2.11102e-07
2.19705e-07
2.23046e-07
2.26319e-07
2.23688e-07
2.17707e-07
2.15213e-07
2.1521e-07
2.15788e-07
2.19696e-07
2.1854e-07
2.21833e-07
2.22057e-07
2.228e-07
2.18605e-07
2.23049e-07
2.24189e-07
2.23696e-07
2.25835e-07
2.25837e-07
2.26549e-07
2.26864e-07
2.25447e-07
2.23343e-07
2.23698e-07
2.25836e-07
2.29621e-07
2.21448e-07
2.21448e-07
2.21448e-07
2.21448e-07
2.21862e-07
2.21069e-07
2.25832e-07
2.21448e-07
2.21448e-07
2.21448e-07
2.21448e-07
2.21448e-07
2.21448e-07
2.15087e-07
2.19221e-07
2.24191e-07
2.26528e-07
2.21448e-07
2.21448e-07
2.21448e-07
2.21448e-07
2.21448e-07
2.21448e-07
2.12598e-07
2.19437e-07
2.23699e-07
2.26865e-07
2.21448e-07
2.21448e-07
2.21448e-07
2.21448e-07
2.21448e-07
2.21448e-07
2.12601e-07
2.20173e-07
2.25447e-07
2.21448e-07
2.21448e-07
2.21448e-07
2.21448e-07
2.21448e-07
2.21448e-07
2.13184e-07
2.1599e-07
2.23345e-07
2.21858e-07
2.21449e-07
2.21448e-07
2.21448e-07
2.21448e-07
2.08481e-07
2.17084e-07
2.20425e-07
2.23698e-07
2.21067e-07
2.15086e-07
2.12592e-07
2.12589e-07
2.13167e-07
2.17075e-07
2.15919e-07
2.19212e-07
2.19436e-07
2.20179e-07
2.15984e-07
2.20428e-07
2.21567e-07
2.21074e-07
2.23214e-07
2.23216e-07
2.23928e-07
2.24243e-07
2.22826e-07
2.20722e-07
2.21076e-07
2.23214e-07
2.27e-07
2.18827e-07
2.18827e-07
2.18827e-07
2.18827e-07
2.19241e-07
2.18448e-07
2.2321e-07
2.18827e-07
2.18827e-07
2.18827e-07
2.18827e-07
2.18827e-07
2.18827e-07
2.12466e-07
2.16601e-07
2.21569e-07
2.23906e-07
2.18827e-07
2.18827e-07
2.18827e-07
2.18827e-07
2.18827e-07
2.18827e-07
2.09977e-07
2.16816e-07
2.21077e-07
2.24244e-07
2.18827e-07
2.18827e-07
2.18827e-07
2.18827e-07
2.18827e-07
2.18827e-07
2.09979e-07
2.17552e-07
2.22825e-07
2.18827e-07
2.18827e-07
2.18827e-07
2.18827e-07
2.18827e-07
2.18827e-07
2.10563e-07
2.13369e-07
2.20723e-07
2.19237e-07
2.18827e-07
2.18827e-07
2.18827e-07
2.18827e-07
2.0586e-07
2.14462e-07
2.17804e-07
2.21076e-07
2.18445e-07
2.12465e-07
2.0997e-07
2.09968e-07
2.10546e-07
2.14454e-07
2.13298e-07
2.1659e-07
2.16814e-07
2.17557e-07
2.13363e-07
2.17807e-07
2.18946e-07
2.18453e-07
2.20593e-07
2.20595e-07
2.21307e-07
2.21622e-07
2.20205e-07
2.18102e-07
2.18455e-07
2.20593e-07
2.24379e-07
2.16206e-07
2.16207e-07
2.16207e-07
2.16207e-07
2.1662e-07
2.15827e-07
2.2059e-07
2.16206e-07
2.16207e-07
2.16207e-07
2.16207e-07
2.16207e-07
2.16206e-07
2.09845e-07
2.1398e-07
2.18948e-07
2.21285e-07
2.16206e-07
2.16207e-07
2.16207e-07
2.16207e-07
2.16207e-07
2.16206e-07
2.07356e-07
2.14195e-07
2.18456e-07
2.21623e-07
2.16207e-07
2.16207e-07
2.16207e-07
2.16207e-07
2.16207e-07
2.16206e-07
2.07359e-07
2.14931e-07
2.20205e-07
2.16206e-07
2.16207e-07
2.16207e-07
2.16207e-07
2.16207e-07
2.16206e-07
2.07942e-07
2.10748e-07
2.18103e-07
2.16616e-07
2.16207e-07
2.16207e-07
2.16206e-07
2.16206e-07
2.03239e-07
2.11841e-07
2.15183e-07
2.18455e-07
2.15824e-07
2.09844e-07
2.0735e-07
2.07347e-07
2.07925e-07
2.11833e-07
2.10677e-07
2.13969e-07
2.14193e-07
2.14936e-07
2.10742e-07
2.15185e-07
2.16327e-07
2.15834e-07
2.17973e-07
2.17975e-07
2.18687e-07
2.19002e-07
2.17585e-07
2.15481e-07
2.15835e-07
2.17973e-07
2.21759e-07
2.13586e-07
2.13586e-07
2.13586e-07
2.13586e-07
2.14e-07
2.13207e-07
2.1797e-07
2.13586e-07
2.13587e-07
2.13586e-07
2.13586e-07
2.13586e-07
2.13586e-07
2.07225e-07
2.1136e-07
2.16328e-07
2.18665e-07
2.13586e-07
2.13586e-07
2.13586e-07
2.13586e-07
2.13586e-07
2.13586e-07
2.04736e-07
2.11575e-07
2.15836e-07
2.19003e-07
2.13586e-07
2.13586e-07
2.13586e-07
2.13586e-07
2.13586e-07
2.13586e-07
2.04739e-07
2.12311e-07
2.17585e-07
2.13586e-07
2.13586e-07
2.13586e-07
2.13586e-07
2.13586e-07
2.13586e-07
2.05322e-07
2.08128e-07
2.15483e-07
2.13996e-07
2.13586e-07
2.13586e-07
2.13586e-07
2.13586e-07
2.00619e-07
2.09221e-07
2.12563e-07
2.15835e-07
2.13204e-07
2.07224e-07
2.04729e-07
2.04727e-07
2.05305e-07
2.09213e-07
2.08057e-07
2.11349e-07
2.11573e-07
2.12316e-07
2.08122e-07
2.12565e-07
2.13706e-07
2.13213e-07
2.15353e-07
2.15355e-07
2.16067e-07
2.16381e-07
2.14964e-07
2.12861e-07
2.13216e-07
2.15353e-07
2.19139e-07
2.10966e-07
2.10966e-07
2.10966e-07
2.10966e-07
2.1138e-07
2.10587e-07
2.15349e-07
2.10966e-07
2.10966e-07
2.10966e-07
2.10966e-07
2.10966e-07
2.10966e-07
2.04604e-07
2.0874e-07
2.13708e-07
2.16045e-07
2.10966e-07
2.10966e-07
2.10966e-07
2.10966e-07
2.10966e-07
2.10966e-07
2.02116e-07
2.08955e-07
2.13216e-07
2.16382e-07
2.10966e-07
2.10966e-07
2.10966e-07
2.10966e-07
2.10966e-07
2.10966e-07
2.02118e-07
2.09691e-07
2.14964e-07
2.10966e-07
2.10966e-07
2.10966e-07
2.10966e-07
2.10966e-07
2.10966e-07
2.02701e-07
2.05508e-07
2.12862e-07
2.11376e-07
2.10965e-07
2.10965e-07
2.10964e-07
2.10965e-07
1.97998e-07
2.06601e-07
2.09943e-07
2.13215e-07
2.10584e-07
2.04603e-07
2.02109e-07
2.02106e-07
2.02684e-07
2.06592e-07
2.05437e-07
2.08729e-07
2.08953e-07
2.09696e-07
2.05501e-07
2.09945e-07
2.11085e-07
2.10592e-07
2.12732e-07
2.12734e-07
2.13446e-07
2.1376e-07
2.12343e-07
2.1024e-07
2.10594e-07
2.12732e-07
2.16518e-07
2.08345e-07
2.08345e-07
2.08345e-07
2.08345e-07
2.08758e-07
2.07966e-07
2.12728e-07
2.08345e-07
2.08345e-07
2.08345e-07
2.08345e-07
2.08345e-07
2.08345e-07
2.01983e-07
2.06118e-07
2.11087e-07
2.13423e-07
2.08345e-07
2.08345e-07
2.08345e-07
2.08345e-07
2.08345e-07
2.08345e-07
1.99495e-07
2.06333e-07
2.10595e-07
2.1376e-07
2.08345e-07
2.08345e-07
2.08345e-07
2.08345e-07
2.08345e-07
2.08345e-07
1.99497e-07
2.0707e-07
2.12343e-07
2.08345e-07
2.08345e-07
2.08345e-07
2.08345e-07
2.08345e-07
2.08345e-07
2.0008e-07
2.02887e-07
2.10241e-07
2.08754e-07
2.08345e-07
2.08345e-07
2.08345e-07
2.08345e-07
1.95377e-07
2.0398e-07
2.07321e-07
2.10594e-07
2.07963e-07
2.01981e-07
1.99487e-07
1.99484e-07
2.00062e-07
2.03971e-07
2.02815e-07
2.06108e-07
2.06332e-07
2.07075e-07
2.0288e-07
2.07324e-07
2.08464e-07
2.07971e-07
2.10111e-07
2.10113e-07
2.10825e-07
2.1114e-07
2.09722e-07
2.0762e-07
2.07973e-07
2.10111e-07
2.13898e-07
2.05724e-07
2.05724e-07
2.05724e-07
2.05724e-07
2.06134e-07
2.05344e-07
2.10107e-07
2.05724e-07
2.05724e-07
2.05724e-07
2.05724e-07
2.05724e-07
2.05724e-07
1.99362e-07
2.03498e-07
2.08466e-07
2.10803e-07
2.05724e-07
2.05724e-07
2.05724e-07
2.05724e-07
2.05724e-07
2.05724e-07
1.96874e-07
2.03712e-07
2.07974e-07
2.11139e-07
2.05724e-07
2.05724e-07
2.05724e-07
2.05724e-07
2.05724e-07
2.05724e-07
1.96876e-07
2.04449e-07
2.09722e-07
2.05724e-07
2.05724e-07
2.05724e-07
2.05724e-07
2.05724e-07
2.05724e-07
1.9746e-07
2.00266e-07
2.0762e-07
2.06134e-07
2.05724e-07
2.05724e-07
2.05724e-07
2.05724e-07
1.92757e-07
2.01359e-07
2.047e-07
2.07973e-07
2.05342e-07
1.9936e-07
1.96866e-07
1.96863e-07
1.97442e-07
2.01351e-07
2.00195e-07
2.03487e-07
2.03711e-07
2.04454e-07
2.00259e-07
2.04703e-07
2.05844e-07
2.05351e-07
2.07491e-07
2.07492e-07
2.08204e-07
2.08519e-07
2.07102e-07
2.04998e-07
2.05353e-07
2.07491e-07
2.11276e-07
2.03103e-07
2.03103e-07
2.03103e-07
2.03103e-07
2.03514e-07
2.02724e-07
2.07487e-07
2.03103e-07
2.03104e-07
2.03104e-07
2.03103e-07
2.03103e-07
2.03104e-07
1.96741e-07
2.00877e-07
2.05845e-07
2.08182e-07
2.03103e-07
2.03103e-07
2.03103e-07
2.03103e-07
2.03103e-07
2.03103e-07
1.94253e-07
2.01092e-07
2.05353e-07
2.08519e-07
2.03103e-07
2.03103e-07
2.03103e-07
2.03103e-07
2.03103e-07
2.03103e-07
1.94256e-07
2.01828e-07
2.07102e-07
2.03103e-07
2.03103e-07
2.03103e-07
2.03103e-07
2.03103e-07
2.03103e-07
1.94839e-07
1.97645e-07
2.05e-07
2.03513e-07
2.03103e-07
2.03103e-07
2.03103e-07
2.03103e-07
1.90136e-07
1.98738e-07
2.0208e-07
2.05352e-07
2.02721e-07
1.96739e-07
1.94247e-07
1.94243e-07
1.94821e-07
1.9873e-07
1.97574e-07
2.00867e-07
2.01091e-07
2.01835e-07
1.97639e-07
2.02083e-07
2.03223e-07
2.0273e-07
2.04869e-07
2.04871e-07
2.05582e-07
2.05897e-07
2.0448e-07
2.02377e-07
2.02731e-07
2.04869e-07
2.08655e-07
2.00483e-07
2.00482e-07
2.00482e-07
2.00482e-07
2.00893e-07
2.00103e-07
2.04865e-07
2.00482e-07
2.00482e-07
2.00482e-07
2.00482e-07
2.00482e-07
2.00482e-07
1.9412e-07
1.98256e-07
2.03224e-07
2.05561e-07
2.00482e-07
2.00482e-07
2.00482e-07
2.00482e-07
2.00482e-07
2.00482e-07
1.91632e-07
1.98471e-07
2.02732e-07
2.05897e-07
2.00482e-07
2.00482e-07
2.00482e-07
2.00482e-07
2.00482e-07
2.00482e-07
1.91634e-07
1.99207e-07
2.0448e-07
2.00482e-07
2.00482e-07
2.00482e-07
2.00482e-07
2.00482e-07
2.00482e-07
1.92218e-07
1.95024e-07
2.02378e-07
2.00892e-07
2.00482e-07
2.00482e-07
2.00482e-07
2.00482e-07
1.87515e-07
1.96117e-07
1.99459e-07
2.02731e-07
2.001e-07
1.94118e-07
1.91626e-07
1.91622e-07
1.922e-07
1.96109e-07
1.94953e-07
1.98245e-07
1.98469e-07
1.99213e-07
1.95018e-07
1.99461e-07
2.00602e-07
2.00109e-07
2.02248e-07
2.0225e-07
2.02961e-07
2.03277e-07
2.0186e-07
1.99756e-07
2.00111e-07
2.02249e-07
2.06034e-07
1.97862e-07
1.97862e-07
1.97862e-07
1.97862e-07
1.98273e-07
1.97482e-07
2.02245e-07
1.97862e-07
1.97862e-07
1.97862e-07
1.97862e-07
1.97862e-07
1.97862e-07
1.915e-07
1.95635e-07
2.00604e-07
2.0294e-07
1.97862e-07
1.97862e-07
1.97862e-07
1.97862e-07
1.97862e-07
1.97862e-07
1.89012e-07
1.9585e-07
2.00112e-07
2.03277e-07
1.97862e-07
1.97862e-07
1.97862e-07
1.97862e-07
1.97862e-07
1.97862e-07
1.89014e-07
1.96587e-07
2.0186e-07
1.97862e-07
1.97862e-07
1.97862e-07
1.97862e-07
1.97862e-07
1.97862e-07
1.89598e-07
1.92404e-07
1.99758e-07
1.98271e-07
1.97862e-07
1.97862e-07
1.97862e-07
1.97862e-07
1.84894e-07
1.93497e-07
1.96838e-07