/*--------------------------------*- C++ -*----------------------------------*\
| =========                 |                                                 |
| \\      /  F ield         | OpenFOAM: The Open Source CFD Toolbox           |
|  \\    /   O peration     | Version:  v2012                                 |
|   \\  /    A nd           | Website:  www.openfoam.com                      |
|    \\/     M anipulation  |                                                 |
\*---------------------------------------------------------------------------*/
FoamFile
{
    version     2.0;
    format      ascii;
    class       volScalarField;
    location    "0.085";
    object      p;
}
// * * * * * * * * * * * * * * * * * * * * * * * * * * * * * * * * * * * * * //

dimensions      [0 2 -2 0 0 0 0];


internalField   nonuniform List<scalar> 
189320
(
-3.60573e-06
-3.58864e-06
-3.60846e-06
-3.61804e-06
-3.63788e-06
-3.64318e-06
-3.63063e-06
-3.62439e-06
-3.61427e-06
-3.60845e-06
-3.63761e-06
-3.64143e-06
-3.64873e-06
-3.6502e-06
-3.64546e-06
-3.63985e-06
-3.62173e-06
-3.61801e-06
-3.64144e-06
-3.65163e-06
-3.65644e-06
-3.65736e-06
-3.65447e-06
-3.64648e-06
-3.63815e-06
-3.62058e-06
-3.60608e-06
-3.63787e-06
-3.64874e-06
-3.65644e-06
-3.6593e-06
-3.65977e-06
-3.65826e-06
-3.65344e-06
-3.6418e-06
-3.62518e-06
-3.58891e-06
-3.64327e-06
-3.65021e-06
-3.65736e-06
-3.65976e-06
-3.66017e-06
-3.65895e-06
-3.65482e-06
-3.64468e-06
-3.62223e-06
-3.63069e-06
-3.64547e-06
-3.65446e-06
-3.65826e-06
-3.65895e-06
-3.65679e-06
-3.65065e-06
-3.6398e-06
-3.60743e-06
-3.62445e-06
-3.63985e-06
-3.64647e-06
-3.65341e-06
-3.6548e-06
-3.65064e-06
-3.64124e-06
-3.63545e-06
-3.61899e-06
-3.61429e-06
-3.62171e-06
-3.63813e-06
-3.64175e-06
-3.64462e-06
-3.63978e-06
-3.63541e-06
-3.62917e-06
-3.62049e-06
-3.62513e-06
-3.62196e-06
-3.60733e-06
-3.61893e-06
-3.6253e-06
-3.62687e-06
-3.62049e-06
-3.6119e-06
-3.61065e-06
-3.60529e-06
-3.61083e-06
-3.63235e-06
-3.62816e-06
-3.62053e-06
-3.59371e-06
-3.61119e-06
-3.61852e-06
-3.61857e-06
-3.61122e-06
-3.62454e-06
-3.62993e-06
-3.61188e-06
-3.61119e-06
-3.63557e-06
-3.63761e-06
-3.63766e-06
-3.63557e-06
-3.61115e-06
-3.65304e-06
-3.64135e-06
-3.62528e-06
-3.61066e-06
-3.61855e-06
-3.63767e-06
-3.63804e-06
-3.63805e-06
-3.63764e-06
-3.61858e-06
-3.65532e-06
-3.64157e-06
-3.62684e-06
-3.60528e-06
-3.61853e-06
-3.63766e-06
-3.63805e-06
-3.63805e-06
-3.63762e-06
-3.61856e-06
-3.65622e-06
-3.63212e-06
-3.61082e-06
-3.61121e-06
-3.63556e-06
-3.63763e-06
-3.63766e-06
-3.63555e-06
-3.61116e-06
-3.65606e-06
-3.64861e-06
-3.63233e-06
-3.62453e-06
-3.61111e-06
-3.61849e-06
-3.61855e-06
-3.61116e-06
-3.68192e-06
-3.64498e-06
-3.63585e-06
-3.62814e-06
-3.62993e-06
-3.65301e-06
-3.65533e-06
-3.65624e-06
-3.65607e-06
-3.64504e-06
-3.65206e-06
-3.64134e-06
-3.64157e-06
-3.63213e-06
-3.64862e-06
-3.63583e-06
-3.59328e-06
-3.59453e-06
-3.58734e-06
-3.57802e-06
-3.57578e-06
-3.57314e-06
-3.57732e-06
-3.59886e-06
-3.59486e-06
-3.58735e-06
-3.56009e-06
-3.5745e-06
-3.57608e-06
-3.57611e-06
-3.57451e-06
-3.59333e-06
-3.5928e-06
-3.57803e-06
-3.57448e-06
-3.58469e-06
-3.58627e-06
-3.58634e-06
-3.58469e-06
-3.57449e-06
-3.61813e-06
-3.6093e-06
-3.59327e-06
-3.57575e-06
-3.57607e-06
-3.58633e-06
-3.58748e-06
-3.58751e-06
-3.5863e-06
-3.57612e-06
-3.62782e-06
-3.60866e-06
-3.5945e-06
-3.57312e-06
-3.57606e-06
-3.58633e-06
-3.5875e-06
-3.58751e-06
-3.58629e-06
-3.57611e-06
-3.62966e-06
-3.59591e-06
-3.57731e-06
-3.57449e-06
-3.58468e-06
-3.58629e-06
-3.58634e-06
-3.58467e-06
-3.57449e-06
-3.62611e-06
-3.61914e-06
-3.59881e-06
-3.59331e-06
-3.57444e-06
-3.57605e-06
-3.57609e-06
-3.57447e-06
-3.63876e-06
-3.60861e-06
-3.60383e-06
-3.59486e-06
-3.59276e-06
-3.61811e-06
-3.6278e-06
-3.62964e-06
-3.62605e-06
-3.60865e-06
-3.61877e-06
-3.60926e-06
-3.60863e-06
-3.59588e-06
-3.6191e-06
-3.6038e-06
-3.55477e-06
-3.5558e-06
-3.54967e-06
-3.53954e-06
-3.53672e-06
-3.53412e-06
-3.53895e-06
-3.56099e-06
-3.55751e-06
-3.54977e-06
-3.52106e-06
-3.53616e-06
-3.5365e-06
-3.53651e-06
-3.53617e-06
-3.55604e-06
-3.55521e-06
-3.53949e-06
-3.53616e-06
-3.53954e-06
-3.5403e-06
-3.54034e-06
-3.53956e-06
-3.53616e-06
-3.57931e-06
-3.57126e-06
-3.55474e-06
-3.53675e-06
-3.53648e-06
-3.54032e-06
-3.54106e-06
-3.54108e-06
-3.54032e-06
-3.53653e-06
-3.58905e-06
-3.56996e-06
-3.55577e-06
-3.53411e-06
-3.53649e-06
-3.54033e-06
-3.54108e-06
-3.54108e-06
-3.54032e-06
-3.53652e-06
-3.58982e-06
-3.55665e-06
-3.53895e-06
-3.53615e-06
-3.53955e-06
-3.54031e-06
-3.54033e-06
-3.53955e-06
-3.53618e-06
-3.58662e-06
-3.58079e-06
-3.56097e-06
-3.55601e-06
-3.53614e-06
-3.53647e-06
-3.53649e-06
-3.53616e-06
-3.60165e-06
-3.57013e-06
-3.56601e-06
-3.55751e-06
-3.5552e-06
-3.57928e-06
-3.58902e-06
-3.5898e-06
-3.58664e-06
-3.57018e-06
-3.58171e-06
-3.57121e-06
-3.56991e-06
-3.55661e-06
-3.58076e-06
-3.566e-06
-3.51534e-06
-3.51635e-06
-3.5107e-06
-3.50005e-06
-3.49709e-06
-3.49438e-06
-3.49955e-06
-3.52177e-06
-3.51851e-06
-3.51061e-06
-3.48125e-06
-3.49671e-06
-3.4968e-06
-3.49681e-06
-3.49671e-06
-3.5169e-06
-3.51618e-06
-3.50006e-06
-3.4967e-06
-3.49793e-06
-3.49812e-06
-3.49814e-06
-3.49794e-06
-3.49672e-06
-3.53979e-06
-3.53202e-06
-3.51536e-06
-3.49711e-06
-3.4968e-06
-3.49813e-06
-3.49836e-06
-3.49837e-06
-3.49813e-06
-3.49681e-06
-3.54934e-06
-3.5305e-06
-3.51636e-06
-3.49437e-06
-3.4968e-06
-3.49813e-06
-3.49837e-06
-3.49837e-06
-3.49813e-06
-3.49681e-06
-3.55006e-06
-3.51714e-06
-3.49954e-06
-3.49671e-06
-3.49793e-06
-3.49813e-06
-3.49814e-06
-3.49793e-06
-3.49671e-06
-3.54676e-06
-3.54149e-06
-3.52177e-06
-3.51689e-06
-3.4967e-06
-3.49679e-06
-3.4968e-06
-3.49671e-06
-3.56275e-06
-3.5308e-06
-3.52688e-06
-3.51849e-06
-3.51615e-06
-3.53976e-06
-3.5493e-06
-3.55005e-06
-3.54675e-06
-3.53084e-06
-3.54281e-06
-3.532e-06
-3.53048e-06
-3.5171e-06
-3.54143e-06
-3.52682e-06
-3.4756e-06
-3.47659e-06
-3.47107e-06
-3.46028e-06
-3.45725e-06
-3.45443e-06
-3.45976e-06
-3.48211e-06
-3.4789e-06
-3.47107e-06
-3.44128e-06
-3.4569e-06
-3.45692e-06
-3.45692e-06
-3.4569e-06
-3.47722e-06
-3.47655e-06
-3.46031e-06
-3.45691e-06
-3.45736e-06
-3.45744e-06
-3.45744e-06
-3.45737e-06
-3.45691e-06
-3.50002e-06
-3.49232e-06
-3.47563e-06
-3.4573e-06
-3.45692e-06
-3.45744e-06
-3.45751e-06
-3.45751e-06
-3.45744e-06
-3.45692e-06
-3.50945e-06
-3.49073e-06
-3.4766e-06
-3.45443e-06
-3.45692e-06
-3.45744e-06
-3.45751e-06
-3.45751e-06
-3.45744e-06
-3.45692e-06
-3.51014e-06
-3.47737e-06
-3.45976e-06
-3.45691e-06
-3.45736e-06
-3.45744e-06
-3.45744e-06
-3.45736e-06
-3.45691e-06
-3.50685e-06
-3.50175e-06
-3.4821e-06
-3.47722e-06
-3.45689e-06
-3.45692e-06
-3.45693e-06
-3.45691e-06
-3.52325e-06
-3.4911e-06
-3.48719e-06
-3.47888e-06
-3.47655e-06
-3.5e-06
-3.50942e-06
-3.51014e-06
-3.50686e-06
-3.49116e-06
-3.5033e-06
-3.49233e-06
-3.49073e-06
-3.47734e-06
-3.50171e-06
-3.48718e-06
-3.43574e-06
-3.43673e-06
-3.43125e-06
-3.42041e-06
-3.41734e-06
-3.41448e-06
-3.41989e-06
-3.44226e-06
-3.43907e-06
-3.43125e-06
-3.40132e-06
-3.41701e-06
-3.417e-06
-3.41701e-06
-3.41701e-06
-3.43736e-06
-3.43674e-06
-3.42042e-06
-3.41701e-06
-3.41718e-06
-3.4172e-06
-3.4172e-06
-3.41717e-06
-3.41699e-06
-3.46015e-06
-3.45249e-06
-3.43575e-06
-3.41735e-06
-3.417e-06
-3.41721e-06
-3.41724e-06
-3.41723e-06
-3.41721e-06
-3.41701e-06
-3.46951e-06
-3.45088e-06
-3.43673e-06
-3.41448e-06
-3.417e-06
-3.41721e-06
-3.41724e-06
-3.41723e-06
-3.41721e-06
-3.41701e-06
-3.47021e-06
-3.43746e-06
-3.41989e-06
-3.417e-06
-3.41718e-06
-3.41721e-06
-3.4172e-06
-3.41717e-06
-3.417e-06
-3.46695e-06
-3.46189e-06
-3.44226e-06
-3.43736e-06
-3.41701e-06
-3.41701e-06
-3.41701e-06
-3.41701e-06
-3.4835e-06
-3.45127e-06
-3.44733e-06
-3.43906e-06
-3.43674e-06
-3.46016e-06
-3.46955e-06
-3.4702e-06
-3.46696e-06
-3.45132e-06
-3.4635e-06
-3.45249e-06
-3.45088e-06
-3.43748e-06
-3.46192e-06
-3.44735e-06
-3.39582e-06
-3.39681e-06
-3.39135e-06
-3.38049e-06
-3.37741e-06
-3.37453e-06
-3.37998e-06
-3.40235e-06
-3.39918e-06
-3.39134e-06
-3.36135e-06
-3.37707e-06
-3.37709e-06
-3.37709e-06
-3.37708e-06
-3.39745e-06
-3.39685e-06
-3.38049e-06
-3.37709e-06
-3.37714e-06
-3.37716e-06
-3.37716e-06
-3.37713e-06
-3.37708e-06
-3.42023e-06
-3.41258e-06
-3.39582e-06
-3.37741e-06
-3.37709e-06
-3.37715e-06
-3.37717e-06
-3.37717e-06
-3.37715e-06
-3.37708e-06
-3.4296e-06
-3.41094e-06
-3.39681e-06
-3.37453e-06
-3.37709e-06
-3.37716e-06
-3.37717e-06
-3.37717e-06
-3.37715e-06
-3.37708e-06
-3.43026e-06
-3.39757e-06
-3.37997e-06
-3.37709e-06
-3.37714e-06
-3.37715e-06
-3.37715e-06
-3.37714e-06
-3.37708e-06
-3.42699e-06
-3.42198e-06
-3.40235e-06
-3.39745e-06
-3.37708e-06
-3.37709e-06
-3.37709e-06
-3.37708e-06
-3.44366e-06
-3.41139e-06
-3.40744e-06
-3.39916e-06
-3.39686e-06
-3.42024e-06
-3.42959e-06
-3.43025e-06
-3.42701e-06
-3.41143e-06
-3.42361e-06
-3.41258e-06
-3.41094e-06
-3.39755e-06
-3.42199e-06
-3.40747e-06
-3.3559e-06
-3.35688e-06
-3.35143e-06
-3.34057e-06
-3.33747e-06
-3.33458e-06
-3.34004e-06
-3.36243e-06
-3.35926e-06
-3.35141e-06
-3.3214e-06
-3.33714e-06
-3.33714e-06
-3.33714e-06
-3.33714e-06
-3.35752e-06
-3.35693e-06
-3.34056e-06
-3.33713e-06
-3.33718e-06
-3.33718e-06
-3.33718e-06
-3.33717e-06
-3.33715e-06
-3.38032e-06
-3.37265e-06
-3.35589e-06
-3.33747e-06
-3.33714e-06
-3.33718e-06
-3.33719e-06
-3.33718e-06
-3.33718e-06
-3.33715e-06
-3.38968e-06
-3.37102e-06
-3.35688e-06
-3.33458e-06
-3.33714e-06
-3.33718e-06
-3.33718e-06
-3.33719e-06
-3.33718e-06
-3.33715e-06
-3.39033e-06
-3.35765e-06
-3.34003e-06
-3.33715e-06
-3.33718e-06
-3.33719e-06
-3.33719e-06
-3.33718e-06
-3.33714e-06
-3.38707e-06
-3.38205e-06
-3.36242e-06
-3.35753e-06
-3.33713e-06
-3.33714e-06
-3.33714e-06
-3.33713e-06
-3.40375e-06
-3.37146e-06
-3.36751e-06
-3.35924e-06
-3.35694e-06
-3.38032e-06
-3.38966e-06
-3.39031e-06
-3.38708e-06
-3.37151e-06
-3.38371e-06
-3.37266e-06
-3.37102e-06
-3.35763e-06
-3.38207e-06
-3.36753e-06
-3.31596e-06
-3.31695e-06
-3.3115e-06
-3.30062e-06
-3.29753e-06
-3.29463e-06
-3.30011e-06
-3.32251e-06
-3.31933e-06
-3.31149e-06
-3.28146e-06
-3.29721e-06
-3.29721e-06
-3.29721e-06
-3.29721e-06
-3.3176e-06
-3.31701e-06
-3.30062e-06
-3.29721e-06
-3.29722e-06
-3.29722e-06
-3.29722e-06
-3.29722e-06
-3.29721e-06
-3.34038e-06
-3.33273e-06
-3.31596e-06
-3.29753e-06
-3.29721e-06
-3.29722e-06
-3.29722e-06
-3.29722e-06
-3.29722e-06
-3.29721e-06
-3.34974e-06
-3.33109e-06
-3.31694e-06
-3.29463e-06
-3.29721e-06
-3.29722e-06
-3.29722e-06
-3.29722e-06
-3.29722e-06
-3.29721e-06
-3.3504e-06
-3.31772e-06
-3.3001e-06
-3.2972e-06
-3.29721e-06
-3.29722e-06
-3.29722e-06
-3.29721e-06
-3.2972e-06
-3.34713e-06
-3.34213e-06
-3.32249e-06
-3.3176e-06
-3.29721e-06
-3.29721e-06
-3.29721e-06
-3.29721e-06
-3.36383e-06
-3.33153e-06
-3.32759e-06
-3.31931e-06
-3.31701e-06
-3.34038e-06
-3.34973e-06
-3.35038e-06
-3.34715e-06
-3.33158e-06
-3.34378e-06
-3.33273e-06
-3.33109e-06
-3.3177e-06
-3.34214e-06
-3.32761e-06
-3.27602e-06
-3.277e-06
-3.27156e-06
-3.26069e-06
-3.25759e-06
-3.25469e-06
-3.26017e-06
-3.28256e-06
-3.27939e-06
-3.27155e-06
-3.24152e-06
-3.25727e-06
-3.25727e-06
-3.25727e-06
-3.25727e-06
-3.27765e-06
-3.27707e-06
-3.26068e-06
-3.25727e-06
-3.25727e-06
-3.25727e-06
-3.25727e-06
-3.25727e-06
-3.25727e-06
-3.30044e-06
-3.29278e-06
-3.27602e-06
-3.25759e-06
-3.25727e-06
-3.25727e-06
-3.25727e-06
-3.25727e-06
-3.25727e-06
-3.25727e-06
-3.30979e-06
-3.29115e-06
-3.277e-06
-3.25469e-06
-3.25727e-06
-3.25727e-06
-3.25727e-06
-3.25727e-06
-3.25727e-06
-3.25727e-06
-3.31044e-06
-3.27778e-06
-3.26016e-06
-3.25727e-06
-3.25727e-06
-3.25727e-06
-3.25727e-06
-3.25727e-06
-3.25727e-06
-3.30718e-06
-3.30219e-06
-3.28255e-06
-3.27766e-06
-3.25727e-06
-3.25727e-06
-3.25727e-06
-3.25727e-06
-3.32388e-06
-3.29159e-06
-3.28765e-06
-3.27938e-06
-3.27707e-06
-3.30044e-06
-3.30978e-06
-3.31043e-06
-3.3072e-06
-3.29164e-06
-3.30384e-06
-3.29279e-06
-3.29114e-06
-3.27776e-06
-3.3022e-06
-3.28767e-06
-3.23608e-06
-3.23706e-06
-3.23155e-06
-3.22074e-06
-3.21765e-06
-3.21475e-06
-3.22023e-06
-3.24261e-06
-3.23945e-06
-3.23162e-06
-3.20158e-06
-3.21733e-06
-3.21733e-06
-3.21733e-06
-3.21733e-06
-3.23771e-06
-3.23713e-06
-3.22075e-06
-3.21733e-06
-3.21733e-06
-3.21733e-06
-3.21733e-06
-3.21733e-06
-3.21733e-06
-3.2605e-06
-3.25285e-06
-3.23608e-06
-3.21765e-06
-3.21733e-06
-3.21733e-06
-3.21733e-06
-3.21733e-06
-3.21733e-06
-3.21733e-06
-3.26985e-06
-3.25121e-06
-3.23706e-06
-3.21475e-06
-3.21733e-06
-3.21733e-06
-3.21733e-06
-3.21733e-06
-3.21733e-06
-3.21733e-06
-3.27051e-06
-3.23784e-06
-3.22022e-06
-3.21733e-06
-3.21733e-06
-3.21733e-06
-3.21733e-06
-3.21733e-06
-3.21733e-06
-3.26725e-06
-3.26225e-06
-3.24261e-06
-3.23773e-06
-3.21733e-06
-3.21733e-06
-3.21733e-06
-3.21733e-06
-3.28395e-06
-3.25166e-06
-3.24771e-06
-3.23944e-06
-3.23714e-06
-3.26051e-06
-3.26985e-06
-3.27049e-06
-3.26727e-06
-3.25171e-06
-3.2639e-06
-3.25285e-06
-3.25121e-06
-3.23782e-06
-3.26226e-06
-3.24773e-06
-3.19614e-06
-3.19713e-06
-3.19165e-06
-3.1808e-06
-3.17771e-06
-3.17482e-06
-3.18029e-06
-3.20268e-06
-3.19951e-06
-3.19168e-06
-3.16164e-06
-3.17739e-06
-3.17739e-06
-3.17739e-06
-3.17739e-06
-3.19777e-06
-3.1972e-06
-3.18081e-06
-3.1774e-06
-3.1774e-06
-3.1774e-06
-3.1774e-06
-3.1774e-06
-3.17739e-06
-3.22057e-06
-3.21291e-06
-3.19614e-06
-3.17771e-06
-3.1774e-06
-3.1774e-06
-3.1774e-06
-3.1774e-06
-3.1774e-06
-3.17739e-06
-3.22992e-06
-3.21128e-06
-3.19713e-06
-3.17482e-06
-3.17739e-06
-3.1774e-06
-3.1774e-06
-3.1774e-06
-3.1774e-06
-3.17739e-06
-3.23057e-06
-3.19791e-06
-3.18029e-06
-3.1774e-06
-3.1774e-06
-3.1774e-06
-3.1774e-06
-3.1774e-06
-3.1774e-06
-3.22732e-06
-3.22232e-06
-3.20268e-06
-3.19779e-06
-3.1774e-06
-3.17739e-06
-3.17739e-06
-3.1774e-06
-3.24401e-06
-3.21172e-06
-3.20777e-06
-3.19951e-06
-3.1972e-06
-3.22057e-06
-3.22991e-06
-3.23056e-06
-3.22734e-06
-3.21177e-06
-3.22397e-06
-3.21292e-06
-3.21127e-06
-3.19789e-06
-3.22233e-06
-3.2078e-06
-3.15621e-06
-3.1572e-06
-3.15168e-06
-3.14087e-06
-3.13778e-06
-3.13489e-06
-3.14036e-06
-3.16275e-06
-3.15958e-06
-3.15175e-06
-3.12171e-06
-3.13746e-06
-3.13746e-06
-3.13746e-06
-3.13746e-06
-3.15784e-06
-3.15726e-06
-3.14088e-06
-3.13746e-06
-3.13746e-06
-3.13746e-06
-3.13746e-06
-3.13746e-06
-3.13746e-06
-3.18063e-06
-3.17298e-06
-3.15621e-06
-3.13778e-06
-3.13746e-06
-3.13746e-06
-3.13746e-06
-3.13746e-06
-3.13746e-06
-3.13746e-06
-3.18998e-06
-3.17134e-06
-3.15719e-06
-3.13488e-06
-3.13746e-06
-3.13746e-06
-3.13746e-06
-3.13746e-06
-3.13746e-06
-3.13746e-06
-3.19064e-06
-3.15797e-06
-3.14035e-06
-3.13746e-06
-3.13746e-06
-3.13746e-06
-3.13746e-06
-3.13746e-06
-3.13746e-06
-3.18738e-06
-3.18238e-06
-3.16274e-06
-3.15786e-06
-3.13746e-06
-3.13746e-06
-3.13746e-06
-3.13746e-06
-3.20408e-06
-3.17179e-06
-3.16784e-06
-3.15957e-06
-3.15727e-06
-3.18064e-06
-3.18998e-06
-3.19063e-06
-3.1874e-06
-3.17184e-06
-3.18404e-06
-3.17298e-06
-3.17134e-06
-3.15795e-06
-3.18239e-06
-3.16786e-06
-3.11627e-06
-3.11726e-06
-3.11174e-06
-3.10094e-06
-3.09784e-06
-3.09495e-06
-3.10043e-06
-3.12282e-06
-3.11964e-06
-3.11181e-06
-3.08177e-06
-3.09752e-06
-3.09752e-06
-3.09752e-06
-3.09752e-06
-3.1179e-06
-3.11732e-06
-3.10094e-06
-3.09753e-06
-3.09753e-06
-3.09753e-06
-3.09753e-06
-3.09753e-06
-3.09753e-06
-3.1407e-06
-3.13304e-06
-3.11627e-06
-3.09784e-06
-3.09753e-06
-3.09753e-06
-3.09753e-06
-3.09753e-06
-3.09753e-06
-3.09753e-06
-3.15005e-06
-3.1314e-06
-3.11726e-06
-3.09495e-06
-3.09753e-06
-3.09753e-06
-3.09753e-06
-3.09753e-06
-3.09753e-06
-3.09753e-06
-3.1507e-06
-3.11804e-06
-3.10042e-06
-3.09753e-06
-3.09753e-06
-3.09753e-06
-3.09753e-06
-3.09753e-06
-3.09753e-06
-3.14744e-06
-3.14244e-06
-3.12281e-06
-3.11792e-06
-3.09753e-06
-3.09753e-06
-3.09753e-06
-3.09753e-06
-3.16414e-06
-3.13185e-06
-3.1279e-06
-3.11964e-06
-3.11733e-06
-3.1407e-06
-3.15004e-06
-3.15069e-06
-3.14746e-06
-3.1319e-06
-3.1441e-06
-3.13305e-06
-3.1314e-06
-3.11802e-06
-3.14246e-06
-3.12793e-06
-3.07634e-06
-3.07733e-06
-3.07181e-06
-3.061e-06
-3.05791e-06
-3.05502e-06
-3.06049e-06
-3.08288e-06
-3.07971e-06
-3.07188e-06
-3.04184e-06
-3.05759e-06
-3.05759e-06
-3.05759e-06
-3.05759e-06
-3.07797e-06
-3.07739e-06
-3.06101e-06
-3.05759e-06
-3.05759e-06
-3.05759e-06
-3.05759e-06
-3.05759e-06
-3.05759e-06
-3.10076e-06
-3.09311e-06
-3.07634e-06
-3.05791e-06
-3.05759e-06
-3.05759e-06
-3.05759e-06
-3.05759e-06
-3.05759e-06
-3.05759e-06
-3.11011e-06
-3.09147e-06
-3.07732e-06
-3.05502e-06
-3.05759e-06
-3.05759e-06
-3.05759e-06
-3.05759e-06
-3.05759e-06
-3.05759e-06
-3.11077e-06
-3.0781e-06
-3.06048e-06
-3.05759e-06
-3.05759e-06
-3.05759e-06
-3.05759e-06
-3.05759e-06
-3.05759e-06
-3.10751e-06
-3.10251e-06
-3.08287e-06
-3.07799e-06
-3.05759e-06
-3.05759e-06
-3.05759e-06
-3.05759e-06
-3.12421e-06
-3.09192e-06
-3.08797e-06
-3.0797e-06
-3.0774e-06
-3.10077e-06
-3.11011e-06
-3.11076e-06
-3.10753e-06
-3.09197e-06
-3.10417e-06
-3.09311e-06
-3.09147e-06
-3.07808e-06
-3.10252e-06
-3.08799e-06
-3.03641e-06
-3.03739e-06
-3.03188e-06
-3.02107e-06
-3.01797e-06
-3.01508e-06
-3.02056e-06
-3.04295e-06
-3.03978e-06
-3.03194e-06
-3.0019e-06
-3.01765e-06
-3.01765e-06
-3.01765e-06
-3.01765e-06
-3.03803e-06
-3.03746e-06
-3.02107e-06
-3.01766e-06
-3.01765e-06
-3.01765e-06
-3.01765e-06
-3.01765e-06
-3.01766e-06
-3.06083e-06
-3.05317e-06
-3.0364e-06
-3.01797e-06
-3.01766e-06
-3.01766e-06
-3.01766e-06
-3.01766e-06
-3.01766e-06
-3.01766e-06
-3.07018e-06
-3.05154e-06
-3.03739e-06
-3.01508e-06
-3.01766e-06
-3.01766e-06
-3.01766e-06
-3.01766e-06
-3.01766e-06
-3.01766e-06
-3.07083e-06
-3.03817e-06
-3.02055e-06
-3.01766e-06
-3.01766e-06
-3.01766e-06
-3.01766e-06
-3.01766e-06
-3.01766e-06
-3.06758e-06
-3.06258e-06
-3.04294e-06
-3.03805e-06
-3.01766e-06
-3.01766e-06
-3.01766e-06
-3.01766e-06
-3.08428e-06
-3.05198e-06
-3.04804e-06
-3.03977e-06
-3.03747e-06
-3.06083e-06
-3.07017e-06
-3.07083e-06
-3.0676e-06
-3.05203e-06
-3.06423e-06
-3.05318e-06
-3.05153e-06
-3.03816e-06
-3.06259e-06
-3.04806e-06
-2.99647e-06
-2.99745e-06
-2.99194e-06
-2.98113e-06
-2.97803e-06
-2.97514e-06
-2.98062e-06
-3.00301e-06
-2.99984e-06
-2.99201e-06
-2.96197e-06
-2.97772e-06
-2.97772e-06
-2.97772e-06
-2.97772e-06
-2.99809e-06
-2.99752e-06
-2.98113e-06
-2.97772e-06
-2.97772e-06
-2.97772e-06
-2.97772e-06
-2.97772e-06
-2.97772e-06
-3.02089e-06
-3.01323e-06
-2.99646e-06
-2.97803e-06
-2.97772e-06
-2.97772e-06
-2.97772e-06
-2.97772e-06
-2.97772e-06
-2.97772e-06
-3.03024e-06
-3.0116e-06
-2.99745e-06
-2.97514e-06
-2.97772e-06
-2.97772e-06
-2.97772e-06
-2.97772e-06
-2.97772e-06
-2.97772e-06
-3.03089e-06
-2.99823e-06
-2.98061e-06
-2.97772e-06
-2.97772e-06
-2.97772e-06
-2.97772e-06
-2.97772e-06
-2.97772e-06
-3.02764e-06
-3.02264e-06
-3.003e-06
-2.99811e-06
-2.97772e-06
-2.97772e-06
-2.97772e-06
-2.97772e-06
-3.04434e-06
-3.01204e-06
-3.0081e-06
-2.99983e-06
-2.99753e-06
-3.02089e-06
-3.03023e-06
-3.03089e-06
-3.02766e-06
-3.01209e-06
-3.02429e-06
-3.01324e-06
-3.0116e-06
-2.99822e-06
-3.02265e-06
-3.00812e-06
-2.95653e-06
-2.95751e-06
-2.95199e-06
-2.94119e-06
-2.93809e-06
-2.9352e-06
-2.94068e-06
-2.96306e-06
-2.9599e-06
-2.95206e-06
-2.92202e-06
-2.93777e-06
-2.93778e-06
-2.93778e-06
-2.93778e-06
-2.95815e-06
-2.95758e-06
-2.94119e-06
-2.93777e-06
-2.93777e-06
-2.93778e-06
-2.93778e-06
-2.93778e-06
-2.93778e-06
-2.98095e-06
-2.97329e-06
-2.95652e-06
-2.93809e-06
-2.93778e-06
-2.93778e-06
-2.93778e-06
-2.93778e-06
-2.93778e-06
-2.93778e-06
-2.9903e-06
-2.97166e-06
-2.95751e-06
-2.9352e-06
-2.93778e-06
-2.93778e-06
-2.93778e-06
-2.93778e-06
-2.93778e-06
-2.93778e-06
-2.99095e-06
-2.95829e-06
-2.94067e-06
-2.93778e-06
-2.93778e-06
-2.93778e-06
-2.93778e-06
-2.93778e-06
-2.93778e-06
-2.9877e-06
-2.9827e-06
-2.96306e-06
-2.95817e-06
-2.93778e-06
-2.93778e-06
-2.93778e-06
-2.93778e-06
-3.0044e-06
-2.9721e-06
-2.96816e-06
-2.95989e-06
-2.95758e-06
-2.98095e-06
-2.99029e-06
-2.99095e-06
-2.98772e-06
-2.97215e-06
-2.98435e-06
-2.9733e-06
-2.97166e-06
-2.95828e-06
-2.98271e-06
-2.96818e-06
-2.91659e-06
-2.91757e-06
-2.91206e-06
-2.90125e-06
-2.89815e-06
-2.89526e-06
-2.90074e-06
-2.92313e-06
-2.91996e-06
-2.91213e-06
-2.88209e-06
-2.89784e-06
-2.89784e-06
-2.89784e-06
-2.89784e-06
-2.91822e-06
-2.91764e-06
-2.90125e-06
-2.89784e-06
-2.89784e-06
-2.89784e-06
-2.89784e-06
-2.89784e-06
-2.89784e-06
-2.94101e-06
-2.93335e-06
-2.91658e-06
-2.89815e-06
-2.89784e-06
-2.89784e-06
-2.89784e-06
-2.89784e-06
-2.89784e-06
-2.89784e-06
-2.95036e-06
-2.93172e-06
-2.91757e-06
-2.89526e-06
-2.89784e-06
-2.89784e-06
-2.89784e-06
-2.89784e-06
-2.89784e-06
-2.89784e-06
-2.95101e-06
-2.91835e-06
-2.90073e-06
-2.89784e-06
-2.89784e-06
-2.89784e-06
-2.89784e-06
-2.89784e-06
-2.89784e-06
-2.94776e-06
-2.94276e-06
-2.92312e-06
-2.91823e-06
-2.89784e-06
-2.89784e-06
-2.89784e-06
-2.89784e-06
-2.96446e-06
-2.93216e-06
-2.92822e-06
-2.91995e-06
-2.91765e-06
-2.94101e-06
-2.95035e-06
-2.95101e-06
-2.94778e-06
-2.93221e-06
-2.94441e-06
-2.93336e-06
-2.93172e-06
-2.91834e-06
-2.94277e-06
-2.92824e-06
-2.87665e-06
-2.87763e-06
-2.87212e-06
-2.86131e-06
-2.85822e-06
-2.85532e-06
-2.8608e-06
-2.88319e-06
-2.88002e-06
-2.87219e-06
-2.84215e-06
-2.8579e-06
-2.8579e-06
-2.8579e-06
-2.8579e-06
-2.87828e-06
-2.8777e-06
-2.86132e-06
-2.8579e-06
-2.8579e-06
-2.8579e-06
-2.8579e-06
-2.8579e-06
-2.8579e-06
-2.90107e-06
-2.89342e-06
-2.87665e-06
-2.85822e-06
-2.8579e-06
-2.8579e-06
-2.8579e-06
-2.8579e-06
-2.8579e-06
-2.8579e-06
-2.91042e-06
-2.89178e-06
-2.87763e-06
-2.85532e-06
-2.8579e-06
-2.8579e-06
-2.8579e-06
-2.8579e-06
-2.8579e-06
-2.8579e-06
-2.91108e-06
-2.87841e-06
-2.86079e-06
-2.8579e-06
-2.8579e-06
-2.8579e-06
-2.8579e-06
-2.8579e-06
-2.8579e-06
-2.90782e-06
-2.90282e-06
-2.88318e-06
-2.87829e-06
-2.8579e-06
-2.8579e-06
-2.8579e-06
-2.8579e-06
-2.92452e-06
-2.89223e-06
-2.88828e-06
-2.88001e-06
-2.87771e-06
-2.90108e-06
-2.91041e-06
-2.91107e-06
-2.90784e-06
-2.89227e-06
-2.90447e-06
-2.89342e-06
-2.89178e-06
-2.8784e-06
-2.90282e-06
-2.88829e-06
-2.83671e-06
-2.83769e-06
-2.83218e-06
-2.82137e-06
-2.81828e-06
-2.81538e-06
-2.82086e-06
-2.84325e-06
-2.84009e-06
-2.83225e-06
-2.80221e-06
-2.81796e-06
-2.81796e-06
-2.81796e-06
-2.81796e-06
-2.83834e-06
-2.83776e-06
-2.82138e-06
-2.81796e-06
-2.81796e-06
-2.81796e-06
-2.81796e-06
-2.81796e-06
-2.81796e-06
-2.86114e-06
-2.85348e-06
-2.83671e-06
-2.81828e-06
-2.81796e-06
-2.81796e-06
-2.81796e-06
-2.81796e-06
-2.81796e-06
-2.81796e-06
-2.87048e-06
-2.85184e-06
-2.8377e-06
-2.81539e-06
-2.81796e-06
-2.81796e-06
-2.81796e-06
-2.81796e-06
-2.81796e-06
-2.81796e-06
-2.87114e-06
-2.83847e-06
-2.82085e-06
-2.81796e-06
-2.81796e-06
-2.81796e-06
-2.81796e-06
-2.81796e-06
-2.81796e-06
-2.86788e-06
-2.86288e-06
-2.84324e-06
-2.83836e-06
-2.81796e-06
-2.81796e-06
-2.81796e-06
-2.81796e-06
-2.88458e-06
-2.85229e-06
-2.84834e-06
-2.84007e-06
-2.83777e-06
-2.86114e-06
-2.87048e-06
-2.87114e-06
-2.86791e-06
-2.85234e-06
-2.86454e-06
-2.85349e-06
-2.85184e-06
-2.83846e-06
-2.86288e-06
-2.84835e-06
-2.79678e-06
-2.79776e-06
-2.79225e-06
-2.78144e-06
-2.77834e-06
-2.77545e-06
-2.78093e-06
-2.80332e-06
-2.80015e-06
-2.79232e-06
-2.76228e-06
-2.77803e-06
-2.77803e-06
-2.77803e-06
-2.77803e-06
-2.79841e-06
-2.79783e-06
-2.78145e-06
-2.77803e-06
-2.77803e-06
-2.77803e-06
-2.77803e-06
-2.77803e-06
-2.77803e-06
-2.8212e-06
-2.81355e-06
-2.79678e-06
-2.77835e-06
-2.77803e-06
-2.77803e-06
-2.77803e-06
-2.77803e-06
-2.77803e-06
-2.77803e-06
-2.83055e-06
-2.81191e-06
-2.79776e-06
-2.77545e-06
-2.77803e-06
-2.77803e-06
-2.77803e-06
-2.77803e-06
-2.77803e-06
-2.77803e-06
-2.83121e-06
-2.79854e-06
-2.78092e-06
-2.77803e-06
-2.77803e-06
-2.77803e-06
-2.77803e-06
-2.77803e-06
-2.77803e-06
-2.82795e-06
-2.82295e-06
-2.80331e-06
-2.79842e-06
-2.77803e-06
-2.77803e-06
-2.77803e-06
-2.77803e-06
-2.84465e-06
-2.81236e-06
-2.80841e-06
-2.80014e-06
-2.79784e-06
-2.82121e-06
-2.83055e-06
-2.8312e-06
-2.82798e-06
-2.8124e-06
-2.8246e-06
-2.81355e-06
-2.81191e-06
-2.79853e-06
-2.82295e-06
-2.80842e-06
-2.75684e-06
-2.75783e-06
-2.75231e-06
-2.7415e-06
-2.73841e-06
-2.73552e-06
-2.74099e-06
-2.76338e-06
-2.76023e-06
-2.75238e-06
-2.72235e-06
-2.7381e-06
-2.73809e-06
-2.73809e-06
-2.73809e-06
-2.75848e-06
-2.7579e-06
-2.74151e-06
-2.7381e-06
-2.7381e-06
-2.7381e-06
-2.7381e-06
-2.7381e-06
-2.7381e-06
-2.78127e-06
-2.77362e-06
-2.75684e-06
-2.73841e-06
-2.7381e-06
-2.7381e-06
-2.7381e-06
-2.7381e-06
-2.7381e-06
-2.7381e-06
-2.79062e-06
-2.77198e-06
-2.75783e-06
-2.73552e-06
-2.7381e-06
-2.7381e-06
-2.7381e-06
-2.7381e-06
-2.7381e-06
-2.7381e-06
-2.79127e-06
-2.75861e-06
-2.74099e-06
-2.7381e-06
-2.7381e-06
-2.7381e-06
-2.7381e-06
-2.7381e-06
-2.7381e-06
-2.78802e-06
-2.78302e-06
-2.76338e-06
-2.75849e-06
-2.7381e-06
-2.7381e-06
-2.7381e-06
-2.7381e-06
-2.80472e-06
-2.77242e-06
-2.76848e-06
-2.76021e-06
-2.75791e-06
-2.78127e-06
-2.79061e-06
-2.79127e-06
-2.78804e-06
-2.77247e-06
-2.78467e-06
-2.77362e-06
-2.77198e-06
-2.7586e-06
-2.78302e-06
-2.76849e-06
-2.71691e-06
-2.71789e-06
-2.71238e-06
-2.70157e-06
-2.69848e-06
-2.69558e-06
-2.70106e-06
-2.72345e-06
-2.72029e-06
-2.71245e-06
-2.68241e-06
-2.69816e-06
-2.69816e-06
-2.69816e-06
-2.69816e-06
-2.71854e-06
-2.71796e-06
-2.70158e-06
-2.69816e-06
-2.69816e-06
-2.69816e-06
-2.69816e-06
-2.69816e-06
-2.69816e-06
-2.74134e-06
-2.73368e-06
-2.71691e-06
-2.69848e-06
-2.69816e-06
-2.69816e-06
-2.69816e-06
-2.69816e-06
-2.69816e-06
-2.69816e-06
-2.75068e-06
-2.73204e-06
-2.71789e-06
-2.69559e-06
-2.69816e-06
-2.69816e-06
-2.69816e-06
-2.69816e-06
-2.69816e-06
-2.69816e-06
-2.75134e-06
-2.71867e-06
-2.70105e-06
-2.69816e-06
-2.69816e-06
-2.69816e-06
-2.69816e-06
-2.69816e-06
-2.69816e-06
-2.74808e-06
-2.74308e-06
-2.72345e-06
-2.71856e-06
-2.69816e-06
-2.69816e-06
-2.69816e-06
-2.69816e-06
-2.76478e-06
-2.73249e-06
-2.72854e-06
-2.72027e-06
-2.71797e-06
-2.74134e-06
-2.75068e-06
-2.75134e-06
-2.74811e-06
-2.73254e-06
-2.74474e-06
-2.73369e-06
-2.73204e-06
-2.71866e-06
-2.74308e-06
-2.72855e-06
-2.67698e-06
-2.67796e-06
-2.67244e-06
-2.66163e-06
-2.65854e-06
-2.65565e-06
-2.66113e-06
-2.68352e-06
-2.68035e-06
-2.67251e-06
-2.64248e-06
-2.65822e-06
-2.65822e-06
-2.65822e-06
-2.65822e-06
-2.67861e-06
-2.67803e-06
-2.66164e-06
-2.65822e-06
-2.65822e-06
-2.65822e-06
-2.65822e-06
-2.65822e-06
-2.65822e-06
-2.7014e-06
-2.69374e-06
-2.67697e-06
-2.65854e-06
-2.65822e-06
-2.65822e-06
-2.65822e-06
-2.65822e-06
-2.65822e-06
-2.65822e-06
-2.71075e-06
-2.6921e-06
-2.67796e-06
-2.65565e-06
-2.65822e-06
-2.65822e-06
-2.65822e-06
-2.65822e-06
-2.65822e-06
-2.65822e-06
-2.7114e-06
-2.67874e-06
-2.66112e-06
-2.65822e-06
-2.65822e-06
-2.65822e-06
-2.65822e-06
-2.65822e-06
-2.65822e-06
-2.70814e-06
-2.70314e-06
-2.68351e-06
-2.67862e-06
-2.65822e-06
-2.65822e-06
-2.65822e-06
-2.65822e-06
-2.72484e-06
-2.69255e-06
-2.6886e-06
-2.68034e-06
-2.67803e-06
-2.7014e-06
-2.71074e-06
-2.7114e-06
-2.70817e-06
-2.6926e-06
-2.7048e-06
-2.69375e-06
-2.69211e-06
-2.67872e-06
-2.70315e-06
-2.68862e-06
-2.63704e-06
-2.63802e-06
-2.63251e-06
-2.62169e-06
-2.6186e-06
-2.61571e-06
-2.62119e-06
-2.64358e-06
-2.64041e-06
-2.63258e-06
-2.60254e-06
-2.61829e-06
-2.61829e-06
-2.61829e-06
-2.61829e-06
-2.63867e-06
-2.63809e-06
-2.6217e-06
-2.61829e-06
-2.61829e-06
-2.61829e-06
-2.61829e-06
-2.61829e-06
-2.61829e-06
-2.66146e-06
-2.6538e-06
-2.63704e-06
-2.6186e-06
-2.61829e-06
-2.61829e-06
-2.61829e-06
-2.61829e-06
-2.61829e-06
-2.61829e-06
-2.67081e-06
-2.65217e-06
-2.63802e-06
-2.61571e-06
-2.61829e-06
-2.61828e-06
-2.61829e-06
-2.61829e-06
-2.61829e-06
-2.61829e-06
-2.67146e-06
-2.6388e-06
-2.62118e-06
-2.61829e-06
-2.61829e-06
-2.61829e-06
-2.61829e-06
-2.61829e-06
-2.61829e-06
-2.66821e-06
-2.66321e-06
-2.64357e-06
-2.63868e-06
-2.61829e-06
-2.61829e-06
-2.61829e-06
-2.61829e-06
-2.68491e-06
-2.65261e-06
-2.64867e-06
-2.6404e-06
-2.6381e-06
-2.66146e-06
-2.6708e-06
-2.67146e-06
-2.66823e-06
-2.65266e-06
-2.66486e-06
-2.65381e-06
-2.65217e-06
-2.63879e-06
-2.66321e-06
-2.64868e-06
-2.5971e-06
-2.59808e-06
-2.59257e-06
-2.58175e-06
-2.57866e-06
-2.57577e-06
-2.58125e-06
-2.60365e-06
-2.60047e-06
-2.59264e-06
-2.5626e-06
-2.57835e-06
-2.57835e-06
-2.57835e-06
-2.57835e-06
-2.59873e-06
-2.59815e-06
-2.58176e-06
-2.57835e-06
-2.57835e-06
-2.57835e-06
-2.57835e-06
-2.57835e-06
-2.57835e-06
-2.62152e-06
-2.61386e-06
-2.5971e-06
-2.57867e-06
-2.57835e-06
-2.57835e-06
-2.57835e-06
-2.57835e-06
-2.57835e-06
-2.57835e-06
-2.63087e-06
-2.61223e-06
-2.59808e-06
-2.57577e-06
-2.57835e-06
-2.57835e-06
-2.57835e-06
-2.57835e-06
-2.57835e-06
-2.57835e-06
-2.63153e-06
-2.59886e-06
-2.58124e-06
-2.57835e-06
-2.57835e-06
-2.57835e-06
-2.57835e-06
-2.57835e-06
-2.57835e-06
-2.62827e-06
-2.62327e-06
-2.60363e-06
-2.59874e-06
-2.57835e-06
-2.57835e-06
-2.57835e-06
-2.57835e-06
-2.64497e-06
-2.61268e-06
-2.60873e-06
-2.60046e-06
-2.59816e-06
-2.62153e-06
-2.63087e-06
-2.63153e-06
-2.62829e-06
-2.61272e-06
-2.62492e-06
-2.61387e-06
-2.61223e-06
-2.59885e-06
-2.62327e-06
-2.60874e-06
-2.55716e-06
-2.55814e-06
-2.55263e-06
-2.54181e-06
-2.53872e-06
-2.53583e-06
-2.54131e-06
-2.5637e-06
-2.56053e-06
-2.5527e-06
-2.52266e-06
-2.53841e-06
-2.53841e-06
-2.53841e-06
-2.53841e-06
-2.5588e-06
-2.55821e-06
-2.54182e-06
-2.53841e-06
-2.53841e-06
-2.53841e-06
-2.53841e-06
-2.53841e-06
-2.53841e-06
-2.58158e-06
-2.57392e-06
-2.55716e-06
-2.53873e-06
-2.53841e-06
-2.53841e-06
-2.53841e-06
-2.53841e-06
-2.53841e-06
-2.53841e-06
-2.59093e-06
-2.57229e-06
-2.55814e-06
-2.53583e-06
-2.53841e-06
-2.53841e-06
-2.53841e-06
-2.53841e-06
-2.53841e-06
-2.53841e-06
-2.59159e-06
-2.55892e-06
-2.5413e-06
-2.53841e-06
-2.53841e-06
-2.53841e-06
-2.53841e-06
-2.53841e-06
-2.53841e-06
-2.58833e-06
-2.58333e-06
-2.56369e-06
-2.5588e-06
-2.53841e-06
-2.53841e-06
-2.53841e-06
-2.53841e-06
-2.60503e-06
-2.57274e-06
-2.56879e-06
-2.56052e-06
-2.55822e-06
-2.58159e-06
-2.59093e-06
-2.59159e-06
-2.58836e-06
-2.57278e-06
-2.58498e-06
-2.57393e-06
-2.57229e-06
-2.55891e-06
-2.58333e-06
-2.5688e-06
-2.51722e-06
-2.51821e-06
-2.51269e-06
-2.50188e-06
-2.49879e-06
-2.4959e-06
-2.50138e-06
-2.52376e-06
-2.5206e-06
-2.51276e-06
-2.48272e-06
-2.49847e-06
-2.49848e-06
-2.49847e-06
-2.49847e-06
-2.51886e-06
-2.51827e-06
-2.50189e-06
-2.49847e-06
-2.49847e-06
-2.49847e-06
-2.49847e-06
-2.49847e-06
-2.49847e-06
-2.54165e-06
-2.53399e-06
-2.51722e-06