/*--------------------------------*- C++ -*----------------------------------*\
| =========                 |                                                 |
| \\      /  F ield         | OpenFOAM: The Open Source CFD Toolbox           |
|  \\    /   O peration     | Version:  v2012                                 |
|   \\  /    A nd           | Website:  www.openfoam.com                      |
|    \\/     M anipulation  |                                                 |
\*---------------------------------------------------------------------------*/
FoamFile
{
    version     2.0;
    format      ascii;
    class       volScalarField;
    location    "0.025";
    object      p;
}
// * * * * * * * * * * * * * * * * * * * * * * * * * * * * * * * * * * * * * //

dimensions      [0 2 -2 0 0 0 0];


internalField   nonuniform List<scalar> 
189320
(
-1.51431e-05
-1.50915e-05
-1.51236e-05
-1.52646e-05
-1.53607e-05
-1.53852e-05
-1.53163e-05
-1.52418e-05
-1.51503e-05
-1.51239e-05
-1.53407e-05
-1.54146e-05
-1.54492e-05
-1.54568e-05
-1.54351e-05
-1.53874e-05
-1.52547e-05
-1.52641e-05
-1.54146e-05
-1.54635e-05
-1.54866e-05
-1.54907e-05
-1.54778e-05
-1.54403e-05
-1.53683e-05
-1.51874e-05
-1.5144e-05
-1.53604e-05
-1.54491e-05
-1.54866e-05
-1.55032e-05
-1.55065e-05
-1.54968e-05
-1.54719e-05
-1.54127e-05
-1.52692e-05
-1.5092e-05
-1.53854e-05
-1.54568e-05
-1.54907e-05
-1.55065e-05
-1.55099e-05
-1.55005e-05
-1.54771e-05
-1.54335e-05
-1.52555e-05
-1.53164e-05
-1.54351e-05
-1.54778e-05
-1.54968e-05
-1.55005e-05
-1.54894e-05
-1.54601e-05
-1.53929e-05
-1.52177e-05
-1.52419e-05
-1.53875e-05
-1.54403e-05
-1.54719e-05
-1.54771e-05
-1.54601e-05
-1.54134e-05
-1.53237e-05
-1.51788e-05
-1.51504e-05
-1.52545e-05
-1.53683e-05
-1.54127e-05
-1.54334e-05
-1.53929e-05
-1.53238e-05
-1.52595e-05
-1.51867e-05
-1.52686e-05
-1.52551e-05
-1.52174e-05
-1.51786e-05
-1.52326e-05
-1.52413e-05
-1.52384e-05
-1.52316e-05
-1.52396e-05
-1.5234e-05
-1.52368e-05
-1.52813e-05
-1.52568e-05
-1.52384e-05
-1.51951e-05
-1.5168e-05
-1.51938e-05
-1.51944e-05
-1.51679e-05
-1.52926e-05
-1.52716e-05
-1.52316e-05
-1.51677e-05
-1.52751e-05
-1.53134e-05
-1.53136e-05
-1.52752e-05
-1.51678e-05
-1.53848e-05
-1.52802e-05
-1.52325e-05
-1.52402e-05
-1.51944e-05
-1.53136e-05
-1.53444e-05
-1.53444e-05
-1.53135e-05
-1.51939e-05
-1.54618e-05
-1.52827e-05
-1.52411e-05
-1.52342e-05
-1.51943e-05
-1.53136e-05
-1.53444e-05
-1.53444e-05
-1.53134e-05
-1.51938e-05
-1.54829e-05
-1.52635e-05
-1.52368e-05
-1.51678e-05
-1.52751e-05
-1.53135e-05
-1.53135e-05
-1.5275e-05
-1.51678e-05
-1.54305e-05
-1.52897e-05
-1.52811e-05
-1.52927e-05
-1.51676e-05
-1.51937e-05
-1.51941e-05
-1.51673e-05
-1.54346e-05
-1.53226e-05
-1.52693e-05
-1.52565e-05
-1.52715e-05
-1.53848e-05
-1.54619e-05
-1.54829e-05
-1.54308e-05
-1.53232e-05
-1.53154e-05
-1.528e-05
-1.52829e-05
-1.52638e-05
-1.52897e-05
-1.52694e-05
-1.5091e-05
-1.50854e-05
-1.5082e-05
-1.50748e-05
-1.50829e-05
-1.50765e-05
-1.50796e-05
-1.51275e-05
-1.5101e-05
-1.50819e-05
-1.50531e-05
-1.5017e-05
-1.50286e-05
-1.50289e-05
-1.50171e-05
-1.51497e-05
-1.50941e-05
-1.50747e-05
-1.5017e-05
-1.50621e-05
-1.50823e-05
-1.50826e-05
-1.50621e-05
-1.5017e-05
-1.51878e-05
-1.51332e-05
-1.50908e-05
-1.50827e-05
-1.50287e-05
-1.50826e-05
-1.51039e-05
-1.5104e-05
-1.50824e-05
-1.50287e-05
-1.52238e-05
-1.51309e-05
-1.50853e-05
-1.50763e-05
-1.50286e-05
-1.50826e-05
-1.5104e-05
-1.5104e-05
-1.50824e-05
-1.50287e-05
-1.52346e-05
-1.50755e-05
-1.50795e-05
-1.5017e-05
-1.5062e-05
-1.50824e-05
-1.50826e-05
-1.5062e-05
-1.5017e-05
-1.52127e-05
-1.51478e-05
-1.51272e-05
-1.51494e-05
-1.50168e-05
-1.50284e-05
-1.50287e-05
-1.50169e-05
-1.5247e-05
-1.51461e-05
-1.51192e-05
-1.51011e-05
-1.50939e-05
-1.51876e-05
-1.52237e-05
-1.52344e-05
-1.52126e-05
-1.51463e-05
-1.51543e-05
-1.5133e-05
-1.51307e-05
-1.50754e-05
-1.51477e-05
-1.51189e-05
-1.49342e-05
-1.49272e-05
-1.49266e-05
-1.49119e-05
-1.49195e-05
-1.49113e-05
-1.49181e-05
-1.497e-05
-1.49464e-05
-1.49262e-05
-1.4889e-05
-1.48617e-05
-1.48647e-05
-1.48648e-05
-1.48617e-05
-1.49882e-05
-1.49371e-05
-1.49118e-05
-1.48617e-05
-1.48764e-05
-1.48834e-05
-1.48836e-05
-1.48764e-05
-1.48616e-05
-1.50235e-05
-1.49749e-05
-1.49341e-05
-1.49193e-05
-1.48646e-05
-1.48835e-05
-1.48925e-05
-1.48926e-05
-1.48835e-05
-1.48648e-05
-1.50524e-05
-1.49699e-05
-1.49271e-05
-1.49111e-05
-1.48646e-05
-1.48836e-05
-1.48926e-05
-1.48926e-05
-1.48835e-05
-1.48648e-05
-1.50586e-05
-1.49127e-05
-1.4918e-05
-1.48615e-05
-1.48763e-05
-1.48834e-05
-1.48835e-05
-1.48764e-05
-1.48617e-05
-1.50459e-05
-1.49883e-05
-1.49697e-05
-1.49881e-05
-1.48614e-05
-1.48644e-05
-1.48646e-05
-1.48616e-05
-1.50839e-05
-1.49847e-05
-1.49622e-05
-1.4946e-05
-1.4937e-05
-1.50234e-05
-1.50521e-05
-1.50583e-05
-1.50457e-05
-1.49848e-05
-1.49995e-05
-1.49748e-05
-1.49696e-05
-1.49125e-05
-1.49881e-05
-1.4962e-05
-1.47734e-05
-1.4766e-05
-1.47667e-05
-1.4749e-05
-1.4756e-05
-1.47473e-05
-1.47553e-05
-1.48093e-05
-1.47868e-05
-1.47669e-05
-1.47252e-05
-1.46988e-05
-1.47e-05
-1.47e-05
-1.46989e-05
-1.48253e-05
-1.47769e-05
-1.4749e-05
-1.46988e-05
-1.47039e-05
-1.47054e-05
-1.47054e-05
-1.47039e-05
-1.46988e-05
-1.48605e-05
-1.48139e-05
-1.47734e-05
-1.47556e-05
-1.46999e-05
-1.47054e-05
-1.47075e-05
-1.47075e-05
-1.47054e-05
-1.47e-05
-1.48854e-05
-1.48078e-05
-1.47659e-05
-1.47472e-05
-1.46999e-05
-1.47054e-05
-1.47075e-05
-1.47075e-05
-1.47054e-05
-1.46999e-05
-1.48906e-05
-1.475e-05
-1.47552e-05
-1.46988e-05
-1.47039e-05
-1.47054e-05
-1.47054e-05
-1.47039e-05
-1.46988e-05
-1.48806e-05
-1.48265e-05
-1.48092e-05
-1.48252e-05
-1.46988e-05
-1.46999e-05
-1.47e-05
-1.46989e-05
-1.49201e-05
-1.4823e-05
-1.48015e-05
-1.47867e-05
-1.47768e-05
-1.48604e-05
-1.48853e-05
-1.48905e-05
-1.48806e-05
-1.48231e-05
-1.48402e-05
-1.48138e-05
-1.48077e-05
-1.47499e-05
-1.48264e-05
-1.48014e-05
-1.46093e-05
-1.46016e-05
-1.46032e-05
-1.45842e-05
-1.45907e-05
-1.45819e-05
-1.45904e-05
-1.46454e-05
-1.46233e-05
-1.46032e-05
-1.45599e-05
-1.45335e-05
-1.4534e-05
-1.4534e-05
-1.45335e-05
-1.46606e-05
-1.46131e-05
-1.45843e-05
-1.45335e-05
-1.45358e-05
-1.45364e-05
-1.45364e-05
-1.45358e-05
-1.45335e-05
-1.46957e-05
-1.46498e-05
-1.46092e-05
-1.45905e-05
-1.4534e-05
-1.45364e-05
-1.45371e-05
-1.45371e-05
-1.45364e-05
-1.4534e-05
-1.47191e-05
-1.46431e-05
-1.46016e-05
-1.45818e-05
-1.4534e-05
-1.45364e-05
-1.45371e-05
-1.45371e-05
-1.45364e-05
-1.4534e-05
-1.47237e-05
-1.45853e-05
-1.45904e-05
-1.45335e-05
-1.45358e-05
-1.45364e-05
-1.45364e-05
-1.45358e-05
-1.45335e-05
-1.4715e-05
-1.4662e-05
-1.46453e-05
-1.46605e-05
-1.45335e-05
-1.4534e-05
-1.4534e-05
-1.45335e-05
-1.47551e-05
-1.46588e-05
-1.46376e-05
-1.46233e-05
-1.46131e-05
-1.46957e-05
-1.47191e-05
-1.47236e-05
-1.47149e-05
-1.46588e-05
-1.46769e-05
-1.46498e-05
-1.4643e-05
-1.45852e-05
-1.4662e-05
-1.46375e-05
-1.44439e-05
-1.44362e-05
-1.44381e-05
-1.44186e-05
-1.44247e-05
-1.44159e-05
-1.44246e-05
-1.44801e-05
-1.44582e-05
-1.44381e-05
-1.43941e-05
-1.43678e-05
-1.43679e-05
-1.43679e-05
-1.43678e-05
-1.44951e-05
-1.44479e-05
-1.44187e-05
-1.43678e-05
-1.43687e-05
-1.4369e-05
-1.4369e-05
-1.43687e-05
-1.43678e-05
-1.45302e-05
-1.44844e-05
-1.44439e-05
-1.44247e-05
-1.43679e-05
-1.43689e-05
-1.43694e-05
-1.43694e-05
-1.4369e-05
-1.4368e-05
-1.45531e-05
-1.44777e-05
-1.44363e-05
-1.44159e-05
-1.43679e-05
-1.4369e-05
-1.43694e-05
-1.43694e-05
-1.4369e-05
-1.4368e-05
-1.45575e-05
-1.44197e-05
-1.44246e-05
-1.43677e-05
-1.43687e-05
-1.4369e-05
-1.4369e-05
-1.43687e-05
-1.43678e-05
-1.45492e-05
-1.44968e-05
-1.44801e-05
-1.4495e-05
-1.43677e-05
-1.43679e-05
-1.43679e-05
-1.43678e-05
-1.45897e-05
-1.44935e-05
-1.44723e-05
-1.44583e-05
-1.44479e-05
-1.45303e-05
-1.45531e-05
-1.45574e-05
-1.45491e-05
-1.44936e-05
-1.45118e-05
-1.44844e-05
-1.44777e-05
-1.44197e-05
-1.44967e-05
-1.44723e-05
-1.42781e-05
-1.42704e-05
-1.42724e-05
-1.42527e-05
-1.42587e-05
-1.42499e-05
-1.42587e-05
-1.43143e-05
-1.42925e-05
-1.42723e-05
-1.42281e-05
-1.42018e-05
-1.42019e-05
-1.42019e-05
-1.42018e-05
-1.43292e-05
-1.42823e-05
-1.42528e-05
-1.42018e-05
-1.42022e-05
-1.42023e-05
-1.42023e-05
-1.42022e-05
-1.42018e-05
-1.43645e-05
-1.43186e-05
-1.4278e-05
-1.42587e-05
-1.42019e-05
-1.42023e-05
-1.42025e-05
-1.42025e-05
-1.42023e-05
-1.42019e-05
-1.43871e-05
-1.43118e-05
-1.42704e-05
-1.42499e-05
-1.42019e-05
-1.42023e-05
-1.42025e-05
-1.42025e-05
-1.42023e-05
-1.42019e-05
-1.43913e-05
-1.42538e-05
-1.42587e-05
-1.42018e-05
-1.42022e-05
-1.42023e-05
-1.42023e-05
-1.42022e-05
-1.42019e-05
-1.43832e-05
-1.43308e-05
-1.43142e-05
-1.43292e-05
-1.42018e-05
-1.42019e-05
-1.42019e-05
-1.42018e-05
-1.44241e-05
-1.43278e-05
-1.43065e-05
-1.42926e-05
-1.42822e-05
-1.43643e-05
-1.43869e-05
-1.43911e-05
-1.4383e-05
-1.43279e-05
-1.43462e-05
-1.43186e-05
-1.43116e-05
-1.42538e-05
-1.43307e-05
-1.43065e-05
-1.41121e-05
-1.41044e-05
-1.41064e-05
-1.40867e-05
-1.40926e-05
-1.40838e-05
-1.40926e-05
-1.41483e-05
-1.41266e-05
-1.41064e-05
-1.4062e-05
-1.40357e-05
-1.40357e-05
-1.40357e-05
-1.40358e-05
-1.41632e-05
-1.41163e-05
-1.40867e-05
-1.40357e-05
-1.40359e-05
-1.4036e-05
-1.4036e-05
-1.4036e-05
-1.40357e-05
-1.41985e-05
-1.41526e-05
-1.41121e-05
-1.40926e-05
-1.40358e-05
-1.40359e-05
-1.4036e-05
-1.4036e-05
-1.4036e-05
-1.40357e-05
-1.4221e-05
-1.41458e-05
-1.41044e-05
-1.40838e-05
-1.40358e-05
-1.4036e-05
-1.40361e-05
-1.40361e-05
-1.4036e-05
-1.40357e-05
-1.42252e-05
-1.40878e-05
-1.40926e-05
-1.40358e-05
-1.40359e-05
-1.4036e-05
-1.4036e-05
-1.40359e-05
-1.40357e-05
-1.42171e-05
-1.41648e-05
-1.41483e-05
-1.41632e-05
-1.40358e-05
-1.40358e-05
-1.40358e-05
-1.40357e-05
-1.42581e-05
-1.41618e-05
-1.41405e-05
-1.41266e-05
-1.41163e-05
-1.41984e-05
-1.42208e-05
-1.4225e-05
-1.4217e-05
-1.41619e-05
-1.41803e-05
-1.41527e-05
-1.41457e-05
-1.40878e-05
-1.41647e-05
-1.41405e-05
-1.3946e-05
-1.39383e-05
-1.39404e-05
-1.39206e-05
-1.39265e-05
-1.39177e-05
-1.39265e-05
-1.39823e-05
-1.39605e-05
-1.39403e-05
-1.38959e-05
-1.38697e-05
-1.38697e-05
-1.38697e-05
-1.38697e-05
-1.39972e-05
-1.39502e-05
-1.39206e-05
-1.38697e-05
-1.38697e-05
-1.38697e-05
-1.38697e-05
-1.38697e-05
-1.38697e-05
-1.40323e-05
-1.39866e-05
-1.3946e-05
-1.39265e-05
-1.38697e-05
-1.38698e-05
-1.38698e-05
-1.38698e-05
-1.38697e-05
-1.38697e-05
-1.40549e-05
-1.39798e-05
-1.39383e-05
-1.39177e-05
-1.38697e-05
-1.38697e-05
-1.38697e-05
-1.38698e-05
-1.38697e-05
-1.38697e-05
-1.40591e-05
-1.39217e-05
-1.39265e-05
-1.38696e-05
-1.38697e-05
-1.38697e-05
-1.38697e-05
-1.38697e-05
-1.38697e-05
-1.4051e-05
-1.39987e-05
-1.39822e-05
-1.39971e-05
-1.38697e-05
-1.38697e-05
-1.38697e-05
-1.38697e-05
-1.4092e-05
-1.39957e-05
-1.39745e-05
-1.39606e-05
-1.39502e-05
-1.40323e-05
-1.40547e-05
-1.40589e-05
-1.40509e-05
-1.39958e-05
-1.40142e-05
-1.39866e-05
-1.39796e-05
-1.39217e-05
-1.39987e-05
-1.39745e-05
-1.37799e-05
-1.37722e-05
-1.37743e-05
-1.37545e-05
-1.37603e-05
-1.37515e-05
-1.37604e-05
-1.38162e-05
-1.37944e-05
-1.37742e-05
-1.37298e-05
-1.37036e-05
-1.37036e-05
-1.37036e-05
-1.37035e-05
-1.3831e-05
-1.37841e-05
-1.37545e-05
-1.37035e-05
-1.37035e-05
-1.37035e-05
-1.37035e-05
-1.37036e-05
-1.37036e-05
-1.38662e-05
-1.38205e-05
-1.37799e-05
-1.37603e-05
-1.37036e-05
-1.37035e-05
-1.37036e-05
-1.37036e-05
-1.37035e-05
-1.37036e-05
-1.38887e-05
-1.38136e-05
-1.37722e-05
-1.37515e-05
-1.37036e-05
-1.37035e-05
-1.37036e-05
-1.37036e-05
-1.37035e-05
-1.37036e-05
-1.38928e-05
-1.37556e-05
-1.37604e-05
-1.37035e-05
-1.37035e-05
-1.37035e-05
-1.37035e-05
-1.37035e-05
-1.37035e-05
-1.38848e-05
-1.38326e-05
-1.38161e-05
-1.3831e-05
-1.37035e-05
-1.37036e-05
-1.37036e-05
-1.37035e-05
-1.39259e-05
-1.38296e-05
-1.38084e-05
-1.37945e-05
-1.37841e-05
-1.38661e-05
-1.38885e-05
-1.38927e-05
-1.38847e-05
-1.38297e-05
-1.38481e-05
-1.38205e-05
-1.38135e-05
-1.37556e-05
-1.38325e-05
-1.38084e-05
-1.36138e-05
-1.36061e-05
-1.36085e-05
-1.35884e-05
-1.35942e-05
-1.35854e-05
-1.35943e-05
-1.36501e-05
-1.36283e-05
-1.36081e-05
-1.35636e-05
-1.35374e-05
-1.35374e-05
-1.35374e-05
-1.35374e-05
-1.36649e-05
-1.3618e-05
-1.35884e-05
-1.35374e-05
-1.35374e-05
-1.35374e-05
-1.35374e-05
-1.35374e-05
-1.35374e-05
-1.37001e-05
-1.36543e-05
-1.36138e-05
-1.35942e-05
-1.35374e-05
-1.35374e-05
-1.35374e-05
-1.35374e-05
-1.35374e-05
-1.35374e-05
-1.37226e-05
-1.36475e-05
-1.36061e-05
-1.35854e-05
-1.35374e-05
-1.35374e-05
-1.35374e-05
-1.35374e-05
-1.35374e-05
-1.35374e-05
-1.37268e-05
-1.35895e-05
-1.35943e-05
-1.35374e-05
-1.35374e-05
-1.35374e-05
-1.35374e-05
-1.35374e-05
-1.35374e-05
-1.37187e-05
-1.36665e-05
-1.365e-05
-1.36649e-05
-1.35374e-05
-1.35374e-05
-1.35374e-05
-1.35374e-05
-1.37598e-05
-1.36635e-05
-1.36423e-05
-1.36284e-05
-1.3618e-05
-1.37e-05
-1.37224e-05
-1.37266e-05
-1.37186e-05
-1.36636e-05
-1.3682e-05
-1.36544e-05
-1.36474e-05
-1.35895e-05
-1.36664e-05
-1.36422e-05
-1.34477e-05
-1.344e-05
-1.34422e-05
-1.34222e-05
-1.34281e-05
-1.34193e-05
-1.34282e-05
-1.34839e-05
-1.34621e-05
-1.3442e-05
-1.33975e-05
-1.33713e-05
-1.33713e-05
-1.33713e-05
-1.33713e-05
-1.34988e-05
-1.34519e-05
-1.34223e-05
-1.33713e-05
-1.33713e-05
-1.33713e-05
-1.33713e-05
-1.33713e-05
-1.33713e-05
-1.3534e-05
-1.34882e-05
-1.34476e-05
-1.34281e-05
-1.33713e-05
-1.33713e-05
-1.33713e-05
-1.33713e-05
-1.33713e-05
-1.33713e-05
-1.35565e-05
-1.34814e-05
-1.344e-05
-1.34193e-05
-1.33713e-05
-1.33713e-05
-1.33713e-05
-1.33713e-05
-1.33713e-05
-1.33713e-05
-1.35606e-05
-1.34234e-05
-1.34281e-05
-1.33713e-05
-1.33713e-05
-1.33713e-05
-1.33713e-05
-1.33713e-05
-1.33713e-05
-1.35526e-05
-1.35004e-05
-1.34839e-05
-1.34987e-05
-1.33713e-05
-1.33713e-05
-1.33713e-05
-1.33713e-05
-1.35937e-05
-1.34974e-05
-1.34761e-05
-1.34622e-05
-1.34518e-05
-1.35339e-05
-1.35562e-05
-1.35604e-05
-1.35525e-05
-1.34975e-05
-1.35159e-05
-1.34883e-05
-1.34813e-05
-1.34233e-05
-1.35003e-05
-1.34761e-05
-1.32815e-05
-1.32738e-05
-1.32762e-05
-1.32561e-05
-1.3262e-05
-1.32532e-05
-1.3262e-05
-1.33178e-05
-1.3296e-05
-1.32759e-05
-1.32314e-05
-1.32052e-05
-1.32052e-05
-1.32052e-05
-1.32052e-05
-1.33327e-05
-1.32857e-05
-1.32561e-05
-1.32052e-05
-1.32052e-05
-1.32052e-05
-1.32052e-05
-1.32052e-05
-1.32052e-05
-1.33679e-05
-1.33221e-05
-1.32815e-05
-1.32619e-05
-1.32052e-05
-1.32052e-05
-1.32052e-05
-1.32052e-05
-1.32052e-05
-1.32052e-05
-1.33903e-05
-1.33153e-05
-1.32738e-05
-1.32532e-05
-1.32052e-05
-1.32052e-05
-1.32052e-05
-1.32052e-05
-1.32052e-05
-1.32052e-05
-1.33945e-05
-1.32572e-05
-1.3262e-05
-1.32052e-05
-1.32052e-05
-1.32052e-05
-1.32052e-05
-1.32052e-05
-1.32052e-05
-1.33865e-05
-1.33343e-05
-1.33178e-05
-1.33326e-05
-1.32052e-05
-1.32052e-05
-1.32052e-05
-1.32052e-05
-1.34275e-05
-1.33313e-05
-1.331e-05
-1.32961e-05
-1.32857e-05
-1.33678e-05
-1.33901e-05
-1.33943e-05
-1.33864e-05
-1.33314e-05
-1.33498e-05
-1.33221e-05
-1.33151e-05
-1.32572e-05
-1.33342e-05
-1.331e-05
-1.31154e-05
-1.31077e-05
-1.31101e-05
-1.309e-05
-1.30959e-05
-1.30871e-05
-1.30959e-05
-1.31517e-05
-1.31298e-05
-1.31097e-05
-1.30653e-05
-1.3039e-05
-1.3039e-05
-1.3039e-05
-1.3039e-05
-1.31665e-05
-1.31196e-05
-1.309e-05
-1.30391e-05
-1.3039e-05
-1.3039e-05
-1.3039e-05
-1.3039e-05
-1.3039e-05
-1.32017e-05
-1.3156e-05
-1.31154e-05
-1.30958e-05
-1.3039e-05
-1.3039e-05
-1.3039e-05
-1.3039e-05
-1.3039e-05
-1.3039e-05
-1.32242e-05
-1.31491e-05
-1.31077e-05
-1.3087e-05
-1.3039e-05
-1.3039e-05
-1.3039e-05
-1.3039e-05
-1.3039e-05
-1.3039e-05
-1.32284e-05
-1.30911e-05
-1.30959e-05
-1.3039e-05
-1.3039e-05
-1.3039e-05
-1.3039e-05
-1.3039e-05
-1.3039e-05
-1.32203e-05
-1.31681e-05
-1.31516e-05
-1.31665e-05
-1.3039e-05
-1.3039e-05
-1.3039e-05
-1.3039e-05
-1.32614e-05
-1.31651e-05
-1.31439e-05
-1.313e-05
-1.31196e-05
-1.32017e-05
-1.3224e-05
-1.32282e-05
-1.32202e-05
-1.31652e-05
-1.31836e-05
-1.3156e-05
-1.3149e-05
-1.30911e-05
-1.3168e-05
-1.31439e-05
-1.29493e-05
-1.29416e-05
-1.2944e-05
-1.29239e-05
-1.29297e-05
-1.29209e-05
-1.29298e-05
-1.29856e-05
-1.29638e-05
-1.29436e-05
-1.28991e-05
-1.28729e-05
-1.28729e-05
-1.28729e-05
-1.28729e-05
-1.30004e-05
-1.29535e-05
-1.29239e-05
-1.28729e-05
-1.28729e-05
-1.28729e-05
-1.28729e-05
-1.28729e-05
-1.28729e-05
-1.30356e-05
-1.29898e-05
-1.29493e-05
-1.29297e-05
-1.28729e-05
-1.28729e-05
-1.28729e-05
-1.28729e-05
-1.28729e-05
-1.28729e-05
-1.30581e-05
-1.2983e-05
-1.29416e-05
-1.29209e-05
-1.28729e-05
-1.28729e-05
-1.28729e-05
-1.28729e-05
-1.28729e-05
-1.28729e-05
-1.30623e-05
-1.2925e-05
-1.29298e-05
-1.28729e-05
-1.28729e-05
-1.28729e-05
-1.28729e-05
-1.28729e-05
-1.28729e-05
-1.30542e-05
-1.3002e-05
-1.29855e-05
-1.30004e-05
-1.28729e-05
-1.28729e-05
-1.28729e-05
-1.28729e-05
-1.30953e-05
-1.2999e-05
-1.29778e-05
-1.29639e-05
-1.29535e-05
-1.30355e-05
-1.30579e-05
-1.30621e-05
-1.30541e-05
-1.29991e-05
-1.30175e-05
-1.29899e-05
-1.29829e-05
-1.29249e-05
-1.30019e-05
-1.29777e-05
-1.27832e-05
-1.27755e-05
-1.27778e-05
-1.27577e-05
-1.27636e-05
-1.27548e-05
-1.27637e-05
-1.28195e-05
-1.27976e-05
-1.27775e-05
-1.2733e-05
-1.27068e-05
-1.27068e-05
-1.27068e-05
-1.27068e-05
-1.28343e-05
-1.27873e-05
-1.27578e-05
-1.27068e-05
-1.27068e-05
-1.27068e-05
-1.27068e-05
-1.27068e-05
-1.27068e-05
-1.28695e-05
-1.28237e-05
-1.27831e-05
-1.27636e-05
-1.27068e-05
-1.27068e-05
-1.27068e-05
-1.27068e-05
-1.27068e-05
-1.27068e-05
-1.28919e-05
-1.28169e-05
-1.27755e-05
-1.27548e-05
-1.27068e-05
-1.27068e-05
-1.27068e-05
-1.27068e-05
-1.27068e-05
-1.27068e-05
-1.28961e-05
-1.27588e-05
-1.27636e-05
-1.27068e-05
-1.27068e-05
-1.27068e-05
-1.27068e-05
-1.27068e-05
-1.27068e-05
-1.28881e-05
-1.28359e-05
-1.28194e-05
-1.28342e-05
-1.27068e-05
-1.27068e-05
-1.27068e-05
-1.27068e-05
-1.29292e-05
-1.28329e-05
-1.28116e-05
-1.27977e-05
-1.27873e-05
-1.28694e-05
-1.28917e-05
-1.28959e-05
-1.2888e-05
-1.2833e-05
-1.28514e-05
-1.28238e-05
-1.28168e-05
-1.27588e-05
-1.28358e-05
-1.28116e-05
-1.2617e-05
-1.26093e-05
-1.26117e-05
-1.25916e-05
-1.25975e-05
-1.25887e-05
-1.25975e-05
-1.26533e-05
-1.26315e-05
-1.26113e-05
-1.25669e-05
-1.25407e-05
-1.25407e-05
-1.25407e-05
-1.25407e-05
-1.26682e-05
-1.26212e-05
-1.25916e-05
-1.25407e-05
-1.25407e-05
-1.25407e-05
-1.25407e-05
-1.25407e-05
-1.25407e-05
-1.27033e-05
-1.26576e-05
-1.2617e-05
-1.25974e-05
-1.25407e-05
-1.25407e-05
-1.25407e-05
-1.25407e-05
-1.25407e-05
-1.25407e-05
-1.27258e-05
-1.26508e-05
-1.26093e-05
-1.25887e-05
-1.25407e-05
-1.25407e-05
-1.25407e-05
-1.25407e-05
-1.25407e-05
-1.25407e-05
-1.273e-05
-1.25927e-05
-1.25975e-05
-1.25407e-05
-1.25407e-05
-1.25407e-05
-1.25407e-05
-1.25407e-05
-1.25407e-05
-1.2722e-05
-1.26697e-05
-1.26532e-05
-1.26681e-05
-1.25407e-05
-1.25407e-05
-1.25407e-05
-1.25407e-05
-1.2763e-05
-1.26668e-05
-1.26455e-05
-1.26316e-05
-1.26212e-05
-1.27033e-05
-1.27256e-05
-1.27298e-05
-1.27219e-05
-1.26669e-05
-1.26852e-05
-1.26576e-05
-1.26506e-05
-1.25927e-05
-1.26697e-05
-1.26455e-05
-1.24509e-05
-1.24432e-05
-1.24456e-05
-1.24255e-05
-1.24314e-05
-1.24226e-05
-1.24314e-05
-1.24872e-05
-1.24654e-05
-1.24452e-05
-1.24008e-05
-1.23745e-05
-1.23745e-05
-1.23745e-05
-1.23745e-05
-1.2502e-05
-1.24551e-05
-1.24255e-05
-1.23745e-05
-1.23745e-05
-1.23745e-05
-1.23745e-05
-1.23745e-05
-1.23745e-05
-1.25372e-05
-1.24915e-05
-1.24509e-05
-1.24313e-05
-1.23745e-05
-1.23745e-05
-1.23745e-05
-1.23745e-05
-1.23745e-05
-1.23745e-05
-1.25597e-05
-1.24846e-05
-1.24432e-05
-1.24225e-05
-1.23745e-05
-1.23745e-05
-1.23745e-05
-1.23745e-05
-1.23745e-05
-1.23745e-05
-1.25639e-05
-1.24266e-05
-1.24314e-05
-1.23745e-05
-1.23745e-05
-1.23745e-05
-1.23745e-05
-1.23745e-05
-1.23745e-05
-1.25558e-05
-1.25036e-05
-1.24871e-05
-1.2502e-05
-1.23745e-05
-1.23745e-05
-1.23745e-05
-1.23745e-05
-1.25969e-05
-1.25006e-05
-1.24794e-05
-1.24655e-05
-1.24551e-05
-1.25372e-05
-1.25595e-05
-1.25637e-05
-1.25557e-05
-1.25007e-05
-1.25191e-05
-1.24915e-05
-1.24845e-05
-1.24266e-05
-1.25035e-05
-1.24793e-05
-1.22848e-05
-1.22771e-05
-1.22794e-05
-1.22594e-05
-1.22652e-05
-1.22564e-05
-1.22653e-05
-1.23211e-05
-1.22993e-05
-1.22791e-05
-1.22346e-05
-1.22084e-05
-1.22084e-05
-1.22084e-05
-1.22084e-05
-1.23359e-05
-1.2289e-05
-1.22594e-05
-1.22084e-05
-1.22084e-05
-1.22084e-05
-1.22084e-05
-1.22084e-05
-1.22084e-05
-1.23711e-05
-1.23253e-05
-1.22848e-05
-1.22652e-05
-1.22084e-05
-1.22084e-05
-1.22084e-05
-1.22084e-05
-1.22084e-05
-1.22084e-05
-1.23936e-05
-1.23185e-05
-1.22771e-05
-1.22564e-05
-1.22084e-05
-1.22084e-05
-1.22084e-05
-1.22084e-05
-1.22084e-05
-1.22084e-05
-1.23978e-05
-1.22605e-05
-1.22653e-05
-1.22084e-05
-1.22084e-05
-1.22084e-05
-1.22084e-05
-1.22084e-05
-1.22084e-05
-1.23897e-05
-1.23375e-05
-1.2321e-05
-1.23359e-05
-1.22084e-05
-1.22084e-05
-1.22084e-05
-1.22084e-05
-1.24308e-05
-1.23345e-05
-1.23133e-05
-1.22994e-05
-1.2289e-05
-1.2371e-05
-1.23934e-05
-1.23976e-05
-1.23896e-05
-1.23346e-05
-1.2353e-05
-1.23254e-05
-1.23184e-05
-1.22605e-05
-1.23374e-05
-1.23132e-05
-1.21186e-05
-1.2111e-05
-1.21133e-05
-1.20932e-05
-1.20991e-05
-1.20903e-05
-1.20992e-05
-1.21549e-05
-1.21331e-05
-1.2113e-05
-1.20685e-05
-1.20423e-05
-1.20423e-05
-1.20423e-05
-1.20423e-05
-1.21698e-05
-1.21228e-05
-1.20933e-05
-1.20423e-05
-1.20423e-05
-1.20423e-05
-1.20423e-05
-1.20423e-05
-1.20423e-05
-1.2205e-05
-1.21592e-05
-1.21186e-05
-1.20991e-05
-1.20423e-05
-1.20423e-05
-1.20423e-05
-1.20423e-05
-1.20423e-05
-1.20423e-05
-1.22275e-05
-1.21524e-05
-1.2111e-05
-1.20903e-05
-1.20423e-05
-1.20423e-05
-1.20423e-05
-1.20423e-05
-1.20423e-05
-1.20423e-05
-1.22316e-05
-1.20943e-05
-1.20991e-05
-1.20423e-05
-1.20423e-05
-1.20423e-05
-1.20423e-05
-1.20423e-05
-1.20423e-05
-1.22236e-05
-1.21714e-05
-1.21549e-05
-1.21697e-05
-1.20423e-05
-1.20423e-05
-1.20423e-05
-1.20423e-05
-1.22647e-05
-1.21684e-05
-1.21471e-05
-1.21332e-05
-1.21228e-05
-1.22049e-05
-1.22273e-05
-1.22315e-05
-1.22235e-05
-1.21685e-05
-1.21869e-05
-1.21593e-05
-1.21523e-05
-1.20943e-05
-1.21713e-05
-1.21471e-05
-1.19525e-05
-1.19448e-05
-1.19472e-05
-1.19271e-05
-1.1933e-05
-1.19242e-05
-1.1933e-05
-1.19888e-05
-1.1967e-05
-1.19469e-05
-1.19024e-05
-1.18762e-05
-1.18762e-05
-1.18762e-05
-1.18762e-05
-1.20037e-05
-1.19567e-05
-1.19271e-05
-1.18762e-05
-1.18762e-05
-1.18762e-05
-1.18762e-05
-1.18762e-05
-1.18762e-05
-1.20389e-05
-1.19931e-05
-1.19525e-05
-1.19329e-05
-1.18762e-05
-1.18762e-05
-1.18762e-05
-1.18762e-05
-1.18762e-05
-1.18762e-05
-1.20613e-05
-1.19863e-05
-1.19448e-05
-1.19242e-05
-1.18762e-05
-1.18762e-05
-1.18762e-05
-1.18762e-05
-1.18762e-05
-1.18762e-05
-1.20655e-05
-1.19282e-05
-1.1933e-05
-1.18762e-05
-1.18762e-05
-1.18762e-05
-1.18762e-05
-1.18762e-05
-1.18762e-05
-1.20575e-05
-1.20053e-05
-1.19888e-05
-1.20036e-05
-1.18762e-05
-1.18762e-05
-1.18762e-05
-1.18762e-05
-1.20985e-05
-1.20023e-05
-1.1981e-05
-1.19671e-05
-1.19567e-05
-1.20388e-05
-1.20612e-05
-1.20653e-05
-1.20574e-05
-1.20024e-05
-1.20208e-05
-1.19931e-05
-1.19861e-05
-1.19282e-05
-1.20052e-05
-1.1981e-05
-1.17864e-05
-1.17787e-05
-1.17811e-05
-1.1761e-05
-1.17669e-05
-1.17581e-05
-1.17669e-05
-1.18226e-05
-1.18009e-05
-1.17807e-05
-1.17363e-05
-1.171e-05
-1.171e-05
-1.171e-05
-1.171e-05
-1.18376e-05
-1.17906e-05
-1.1761e-05
-1.171e-05
-1.171e-05
-1.171e-05
-1.171e-05
-1.171e-05
-1.171e-05
-1.18727e-05
-1.1827e-05
-1.17864e-05
-1.17668e-05
-1.171e-05
-1.171e-05
-1.171e-05
-1.171e-05
-1.171e-05
-1.171e-05
-1.18952e-05
-1.18201e-05
-1.17787e-05
-1.17581e-05
-1.171e-05
-1.171e-05
-1.171e-05
-1.171e-05
-1.171e-05
-1.171e-05
-1.18994e-05
-1.17621e-05
-1.17669e-05
-1.171e-05
-1.171e-05
-1.171e-05
-1.171e-05
-1.171e-05
-1.171e-05
-1.18914e-05
-1.18391e-05
-1.18226e-05
-1.18375e-05
-1.171e-05
-1.171e-05
-1.171e-05
-1.171e-05
-1.19324e-05
-1.18361e-05
-1.18149e-05
-1.1801e-05
-1.17906e-05
-1.18727e-05
-1.1895e-05
-1.18992e-05
-1.18912e-05
-1.18362e-05
-1.18546e-05
-1.1827e-05
-1.182e-05
-1.17621e-05
-1.1839e-05
-1.18149e-05
-1.16203e-05
-1.16126e-05
-1.1615e-05
-1.15949e-05
-1.16007e-05
-1.15919e-05
-1.16008e-05
-1.16565e-05
-1.16347e-05
-1.16146e-05
-1.15701e-05
-1.15439e-05
-1.15439e-05
-1.15439e-05
-1.15439e-05
-1.16714e-05
-1.16245e-05
-1.15949e-05
-1.15439e-05
-1.15439e-05
-1.15439e-05
-1.15439e-05
-1.15439e-05
-1.15439e-05
-1.17066e-05
-1.16608e-05
-1.16203e-05
-1.16007e-05
-1.15439e-05
-1.15439e-05
-1.15439e-05
-1.15439e-05
-1.15439e-05
-1.15439e-05
-1.17291e-05
-1.1654e-05
-1.16126e-05
-1.15919e-05
-1.15439e-05
-1.15439e-05
-1.15439e-05
-1.15439e-05
-1.15439e-05
-1.15439e-05
-1.17333e-05
-1.1596e-05
-1.16008e-05
-1.15439e-05
-1.15439e-05
-1.15439e-05
-1.15439e-05
-1.15439e-05
-1.15439e-05
-1.17252e-05
-1.1673e-05
-1.16565e-05
-1.16714e-05
-1.15439e-05
-1.15439e-05
-1.15439e-05
-1.15439e-05
-1.17663e-05
-1.167e-05
-1.16488e-05
-1.16349e-05
-1.16245e-05
-1.17065e-05
-1.17289e-05
-1.17331e-05
-1.17251e-05
-1.16701e-05
-1.16885e-05
-1.16609e-05
-1.16539e-05
-1.15959e-05
-1.16729e-05
-1.16487e-05
-1.14541e-05
-1.14465e-05
-1.14489e-05
-1.14287e-05
-1.14346e-05
-1.14258e-05
-1.14347e-05
-1.14904e-05
-1.14686e-05
-1.14485e-05
-1.1404e-05
-1.13778e-05
-1.13778e-05
-1.13778e-05
-1.13778e-05
-1.15053e-05
-1.14584e-05
-1.14288e-05
-1.13778e-05
-1.13778e-05
-1.13778e-05
-1.13778e-05
-1.13778e-05
-1.13778e-05
-1.15405e-05
-1.14947e-05
-1.14541e-05
-1.14346e-05
-1.13778e-05
-1.13778e-05
-1.13778e-05
-1.13778e-05
-1.13778e-05
-1.13778e-05
-1.1563e-05
-1.14879e-05
-1.14465e-05
-1.14258e-05
-1.13778e-05
-1.13778e-05
-1.13778e-05
-1.13778e-05
-1.13778e-05
-1.13778e-05
-1.15671e-05
-1.14299e-05
-1.14346e-05
-1.13778e-05
-1.13778e-05
-1.13778e-05
-1.13778e-05
-1.13778e-05
-1.13778e-05
-1.15591e-05
-1.15069e-05
-1.14904e-05
-1.15052e-05
-1.13778e-05
-1.13778e-05
-1.13778e-05
-1.13778e-05
-1.16002e-05
-1.15039e-05
-1.14826e-05
-1.14688e-05
-1.14584e-05
-1.15404e-05
-1.15628e-05
-1.1567e-05
-1.1559e-05
-1.1504e-05
-1.15224e-05
-1.14948e-05
-1.14878e-05
-1.14298e-05
-1.15068e-05
-1.14826e-05
-1.1288e-05
-1.12804e-05
-1.12828e-05
-1.12626e-05
-1.12685e-05
-1.12597e-05
-1.12686e-05
-1.13243e-05
-1.13025e-05
-1.12824e-05
-1.12379e-05
-1.12117e-05
-1.12117e-05
-1.12117e-05
-1.12117e-05
-1.13392e-05
-1.12923e-05
-1.12627e-05
-1.12117e-05
-1.12117e-05
-1.12117e-05
-1.12117e-05
-1.12117e-05
-1.12117e-05
-1.13744e-05
-1.13286e-05
-1.1288e-05
-1.12685e-05
-1.12117e-05
-1.12117e-05
-1.12117e-05
-1.12117e-05
-1.12117e-05
-1.12117e-05
-1.13969e-05
-1.13218e-05
-1.12804e-05
-1.12597e-05
-1.12117e-05
-1.12117e-05
-1.12117e-05
-1.12117e-05
-1.12117e-05
-1.12117e-05
-1.1401e-05
-1.12637e-05
-1.12685e-05
-1.12117e-05
-1.12117e-05
-1.12117e-05
-1.12117e-05
-1.12117e-05
-1.12117e-05
-1.1393e-05
-1.13408e-05
-1.13243e-05
-1.13391e-05
-1.12117e-05
-1.12117e-05
-1.12117e-05
-1.12117e-05
-1.14341e-05
-1.13378e-05
-1.13165e-05
-1.13026e-05
-1.12922e-05
-1.13743e-05
-1.13967e-05
-1.14009e-05
-1.13929e-05
-1.13379e-05
-1.13563e-05
-1.13287e-05
-1.13217e-05
-1.12637e-05
-1.13407e-05
-1.13165e-05
-1.11219e-05
-1.11143e-05
-1.11166e-05
-1.10965e-05
-1.11024e-05
-1.10936e-05
-1.11025e-05
-1.11582e-05
-1.11364e-05
-1.11163e-05
-1.10718e-05
-1.10456e-05
-1.10456e-05
-1.10456e-05
-1.10456e-05
-1.11731e-05
-1.11261e-05
-1.10965e-05
-1.10456e-05
-1.10456e-05
-1.10456e-05
-1.10456e-05
-1.10456e-05
-1.10456e-05
-1.12083e-05
-1.11625e-05
-1.11219e-05
-1.11023e-05
-1.10456e-05
-1.10456e-05
-1.10456e-05
-1.10456e-05
-1.10456e-05
-1.10456e-05
-1.12307e-05
-1.11557e-05
-1.11142e-05
-1.10936e-05
-1.10456e-05
-1.10456e-05
-1.10456e-05
-1.10456e-05
-1.10456e-05
-1.10456e-05
-1.12349e-05
-1.10976e-05
-1.11024e-05
-1.10456e-05
-1.10456e-05
-1.10456e-05
-1.10456e-05
-1.10456e-05
-1.10456e-05
-1.12269e-05
-1.11747e-05
-1.11582e-05
-1.1173e-05
-1.10456e-05
-1.10456e-05
-1.10456e-05
-1.10456e-05
-1.12679e-05
-1.11717e-05
-1.11504e-05
-1.11365e-05
-1.11261e-05
-1.12082e-05
-1.12306e-05
-1.12347e-05
-1.12268e-05
-1.11718e-05
-1.11902e-05
-1.11625e-05
-1.11555e-05
-1.10976e-05
-1.11746e-05
-1.11504e-05
-1.09558e-05
-1.09481e-05
-1.09505e-05
-1.09304e-05
-1.09363e-05
-1.09275e-05
-1.09363e-05
-1.0992e-05
-1.09703e-05
-1.09501e-05
-1.09057e-05
-1.08795e-05
-1.08795e-05
-1.08795e-05
-1.08795e-05
-1.1007e-05
-1.096e-05
-1.09304e-05
-1.08795e-05
-1.08795e-05
-1.08795e-05
-1.08795e-05
-1.08795e-05
-1.08795e-05
-1.10421e-05
-1.09964e-05
-1.09558e-05
-1.09362e-05
-1.08795e-05
-1.08795e-05
-1.08795e-05
-1.08795e-05
-1.08795e-05
-1.08795e-05
-1.10646e-05
-1.09896e-05
-1.09481e-05
-1.09275e-05
-1.08795e-05
-1.08795e-05
-1.08795e-05
-1.08795e-05
-1.08795e-05
-1.08795e-05
-1.10688e-05
-1.09315e-05
-1.09363e-05
-1.08795e-05
-1.08795e-05
-1.08795e-05
-1.08795e-05
-1.08795e-05
-1.08795e-05
-1.10608e-05
-1.10085e-05
-1.0992e-05
-1.10069e-05
-1.08795e-05
-1.08795e-05
-1.08795e-05
-1.08795e-05
-1.11018e-05
-1.10056e-05
-1.09843e-05
-1.09704e-05
-1.096e-05
-1.10421e-05
-1.10644e-05
-1.10686e-05
-1.10606e-05
-1.10057e-05
-1.1024e-05
-1.09964e-05
-1.09894e-05
-1.09315e-05
-1.10084e-05
-1.09843e-05
-1.07897e-05
-1.0782e-05
-1.07843e-05
-1.07643e-05
-1.07702e-05
-1.07613e-05
-1.07702e-05
-1.08259e-05
-1.08041e-05
-1.0784e-05
-1.07396e-05
-1.07133e-05
-1.07133e-05
-1.07133e-05
-1.07133e-05
-1.08408e-05
-1.07939e-05
-1.07643e-05
-1.07133e-05
-1.07133e-05
-1.07133e-05
-1.07133e-05
-1.07133e-05
-1.07133e-05
-1.0876e-05
-1.08302e-05
-1.07897e-05
-1.07701e-05
-1.07133e-05
-1.07133e-05
-1.07133e-05
-1.07133e-05
-1.07133e-05
-1.07133e-05
-1.08985e-05
-1.08234e-05
-1.0782e-05
-1.07613e-05
-1.07133e-05
-1.07133e-05
-1.07133e-05
-1.07133e-05
-1.07133e-05
-1.07133e-05
-1.09027e-05
-1.07654e-05
-1.07702e-05
-1.07133e-05
-1.07133e-05
-1.07133e-05
-1.07133e-05
-1.07133e-05
-1.07133e-05
-1.08946e-05
-1.08424e-05
-1.08259e-05
-1.08408e-05
-1.07133e-05
-1.07133e-05
-1.07133e-05
-1.07133e-05
-1.09357e-05
-1.08394e-05
-1.08182e-05
-1.08043e-05
-1.07939e-05
-1.08759e-05
-1.08983e-05
-1.09025e-05
-1.08945e-05
-1.08395e-05
-1.08579e-05
-1.08303e-05
-1.08233e-05
-1.07654e-05
-1.08423e-05
-1.08181e-05
-1.06236e-05
-1.06159e-05
-1.06183e-05
-1.05982e-05
-1.0604e-05
-1.05952e-05
-1.06041e-05
-1.06598e-05
-1.06381e-05
-1.06179e-05
-1.05734e-05
-1.05472e-05
-1.05472e-05
-1.05472e-05
-1.05472e-05
-1.06747e-05
-1.06278e-05
-1.05982e-05
-1.05472e-05
-1.05472e-05
-1.05472e-05
-1.05472e-05
-1.05472e-05
-1.05472e-05
-1.07099e-05
-1.06641e-05
-1.06236e-05
-1.0604e-05
-1.05472e-05
-1.05472e-05