/*--------------------------------*- C++ -*----------------------------------*\
| =========                 |                                                 |
| \\      /  F ield         | OpenFOAM: The Open Source CFD Toolbox           |
|  \\    /   O peration     | Version:  v2012                                 |
|   \\  /    A nd           | Website:  www.openfoam.com                      |
|    \\/     M anipulation  |                                                 |
\*---------------------------------------------------------------------------*/
FoamFile
{
    version     2.0;
    format      ascii;
    class       volScalarField;
    location    "0.18";
    object      p;
}
// * * * * * * * * * * * * * * * * * * * * * * * * * * * * * * * * * * * * * //

dimensions      [0 2 -2 0 0 0 0];


internalField   nonuniform List<scalar> 
189320
(
-5.38587e-07
-5.34332e-07
-5.47105e-07
-5.47923e-07
-5.53921e-07
-5.5585e-07
-5.51245e-07
-5.50199e-07
-5.50704e-07
-5.47111e-07
-5.55318e-07
-5.55366e-07
-5.57523e-07
-5.58016e-07
-5.56451e-07
-5.55195e-07
-5.49819e-07
-5.47932e-07
-5.55368e-07
-5.58653e-07
-5.601e-07
-5.60386e-07
-5.59455e-07
-5.57049e-07
-5.55066e-07
-5.48319e-07
-5.38769e-07
-5.53935e-07
-5.57528e-07
-5.60102e-07
-5.6106e-07
-5.61217e-07
-5.607e-07
-5.59058e-07
-5.55136e-07
-5.47988e-07
-5.3447e-07
-5.55873e-07
-5.5802e-07
-5.60383e-07
-5.61212e-07
-5.61354e-07
-5.60925e-07
-5.59523e-07
-5.55777e-07
-5.50367e-07
-5.51257e-07
-5.56449e-07
-5.59446e-07
-5.60692e-07
-5.60922e-07
-5.60192e-07
-5.58194e-07
-5.54931e-07
-5.37573e-07
-5.50204e-07
-5.55185e-07
-5.57031e-07
-5.59037e-07
-5.59509e-07
-5.58187e-07
-5.55349e-07
-5.5501e-07
-5.48399e-07
-5.50696e-07
-5.49795e-07
-5.55024e-07
-5.55093e-07
-5.55748e-07
-5.54918e-07
-5.54999e-07
-5.55799e-07
-5.48297e-07
-5.47913e-07
-5.50271e-07
-5.37534e-07
-5.48365e-07
-5.58844e-07
-5.59087e-07
-5.56058e-07
-5.54793e-07
-5.54653e-07
-5.5407e-07
-5.54812e-07
-5.60476e-07
-5.59096e-07
-5.56049e-07
-5.48967e-07
-5.59187e-07
-5.61066e-07
-5.61066e-07
-5.59221e-07
-5.60246e-07
-5.61911e-07
-5.5482e-07
-5.59196e-07
-5.65022e-07
-5.64887e-07
-5.649e-07
-5.65027e-07
-5.5918e-07
-5.7083e-07
-5.66185e-07
-5.58859e-07
-5.54669e-07
-5.61062e-07
-5.64897e-07
-5.64619e-07
-5.64625e-07
-5.64897e-07
-5.61093e-07
-5.71334e-07
-5.66533e-07
-5.59091e-07
-5.54061e-07
-5.61054e-07
-5.64896e-07
-5.64623e-07
-5.64625e-07
-5.64892e-07
-5.61081e-07
-5.71563e-07
-5.62713e-07
-5.548e-07
-5.59223e-07
-5.6502e-07
-5.64891e-07
-5.64905e-07
-5.65025e-07
-5.59202e-07
-5.71975e-07
-5.70618e-07
-5.60456e-07
-5.60236e-07
-5.59153e-07
-5.61058e-07
-5.61067e-07
-5.59206e-07
-5.8199e-07
-5.68092e-07
-5.6352e-07
-5.59082e-07
-5.61912e-07
-5.70838e-07
-5.71355e-07
-5.71584e-07
-5.72059e-07
-5.68156e-07
-5.70756e-07
-5.66173e-07
-5.66533e-07
-5.62724e-07
-5.70638e-07
-5.63472e-07
-5.54091e-07
-5.5467e-07
-5.51273e-07
-5.49126e-07
-5.48372e-07
-5.47532e-07
-5.49306e-07
-5.55566e-07
-5.54665e-07
-5.51281e-07
-5.42626e-07
-5.52794e-07
-5.53148e-07
-5.53155e-07
-5.52803e-07
-5.55236e-07
-5.56379e-07
-5.49134e-07
-5.52793e-07
-5.55696e-07
-5.55856e-07
-5.55873e-07
-5.55699e-07
-5.52796e-07
-5.66127e-07
-5.61903e-07
-5.54086e-07
-5.48366e-07
-5.53142e-07
-5.55866e-07
-5.55896e-07
-5.55908e-07
-5.55865e-07
-5.53161e-07
-5.70229e-07
-5.61559e-07
-5.54661e-07
-5.47523e-07
-5.53139e-07
-5.5587e-07
-5.55905e-07
-5.55907e-07
-5.55863e-07
-5.53158e-07
-5.70471e-07
-5.58056e-07
-5.49302e-07
-5.52797e-07
-5.55698e-07
-5.55861e-07
-5.55876e-07
-5.557e-07
-5.52797e-07
-5.69642e-07
-5.66638e-07
-5.55546e-07
-5.55226e-07
-5.52785e-07
-5.53147e-07
-5.53153e-07
-5.52796e-07
-5.7639e-07
-5.63221e-07
-5.5953e-07
-5.54649e-07
-5.56359e-07
-5.66154e-07
-5.70213e-07
-5.70467e-07
-5.6968e-07
-5.63231e-07
-5.66626e-07
-5.61902e-07
-5.61557e-07
-5.58054e-07
-5.66636e-07
-5.59529e-07
-5.48123e-07
-5.48691e-07
-5.4551e-07
-5.431e-07
-5.42064e-07
-5.41108e-07
-5.43194e-07
-5.4969e-07
-5.48967e-07
-5.45503e-07
-5.36213e-07
-5.46511e-07
-5.46586e-07
-5.4659e-07
-5.46516e-07
-5.49579e-07
-5.50676e-07
-5.43095e-07
-5.46513e-07
-5.47541e-07
-5.47648e-07
-5.47659e-07
-5.47542e-07
-5.46511e-07
-5.60531e-07
-5.56073e-07
-5.48115e-07
-5.42062e-07
-5.46581e-07
-5.47654e-07
-5.47736e-07
-5.47743e-07
-5.47655e-07
-5.46592e-07
-5.64625e-07
-5.55633e-07
-5.48682e-07
-5.41103e-07
-5.46583e-07
-5.4766e-07
-5.47744e-07
-5.47745e-07
-5.47653e-07
-5.46588e-07
-5.64849e-07
-5.52048e-07
-5.43192e-07
-5.46509e-07
-5.47543e-07
-5.47652e-07
-5.47661e-07
-5.47542e-07
-5.46517e-07
-5.63792e-07
-5.60763e-07
-5.49688e-07
-5.49574e-07
-5.46506e-07
-5.46578e-07
-5.46584e-07
-5.46512e-07
-5.71094e-07
-5.57272e-07
-5.53817e-07
-5.4896e-07
-5.50675e-07
-5.60523e-07
-5.64617e-07
-5.64849e-07
-5.63812e-07
-5.57285e-07
-5.61005e-07
-5.56067e-07
-5.55635e-07
-5.52037e-07
-5.60766e-07
-5.53816e-07
-5.41811e-07
-5.42375e-07
-5.39256e-07
-5.3675e-07
-5.35601e-07
-5.34614e-07
-5.36869e-07
-5.4341e-07
-5.42736e-07
-5.39264e-07
-5.29715e-07
-5.40076e-07
-5.40093e-07
-5.40094e-07
-5.40076e-07
-5.43357e-07
-5.44447e-07
-5.36744e-07
-5.40075e-07
-5.40446e-07
-5.40479e-07
-5.40484e-07
-5.40447e-07
-5.40079e-07
-5.54247e-07
-5.49814e-07
-5.41803e-07
-5.35595e-07
-5.40094e-07
-5.4048e-07
-5.40509e-07
-5.40514e-07
-5.40481e-07
-5.40096e-07
-5.58387e-07
-5.49331e-07
-5.42366e-07
-5.34611e-07
-5.40093e-07
-5.4048e-07
-5.40513e-07
-5.40515e-07
-5.4048e-07
-5.40095e-07
-5.58575e-07
-5.45719e-07
-5.36865e-07
-5.40075e-07
-5.40446e-07
-5.4048e-07
-5.40485e-07
-5.40448e-07
-5.40077e-07
-5.57389e-07
-5.54497e-07
-5.43408e-07
-5.4335e-07
-5.40075e-07
-5.40092e-07
-5.40094e-07
-5.40076e-07
-5.64975e-07
-5.50967e-07
-5.47594e-07
-5.42732e-07
-5.44441e-07
-5.54243e-07
-5.58383e-07
-5.58578e-07
-5.57398e-07
-5.50979e-07
-5.54804e-07
-5.49807e-07
-5.49331e-07
-5.45721e-07
-5.54492e-07
-5.47588e-07
-5.35358e-07
-5.35922e-07
-5.32829e-07
-5.3028e-07
-5.29084e-07
-5.28091e-07
-5.30415e-07
-5.36975e-07
-5.36316e-07
-5.32833e-07
-5.23186e-07
-5.33579e-07
-5.33583e-07
-5.33583e-07
-5.33581e-07
-5.3693e-07
-5.38026e-07
-5.30281e-07
-5.33584e-07
-5.33717e-07
-5.33732e-07
-5.33732e-07
-5.33718e-07
-5.33584e-07
-5.47795e-07
-5.4337e-07
-5.35358e-07
-5.29081e-07
-5.33584e-07
-5.33732e-07
-5.3374e-07
-5.33739e-07
-5.33732e-07
-5.33585e-07
-5.51942e-07
-5.42885e-07
-5.35921e-07
-5.2809e-07
-5.33582e-07
-5.33731e-07
-5.3374e-07
-5.33738e-07
-5.33731e-07
-5.33585e-07
-5.52124e-07
-5.39264e-07
-5.30413e-07
-5.33582e-07
-5.33716e-07
-5.33732e-07
-5.33732e-07
-5.33716e-07
-5.33583e-07
-5.50901e-07
-5.48058e-07
-5.36978e-07
-5.36932e-07
-5.33581e-07
-5.33583e-07
-5.33586e-07
-5.33583e-07
-5.58607e-07
-5.44528e-07
-5.41168e-07
-5.36317e-07
-5.38023e-07
-5.47792e-07
-5.51942e-07
-5.52129e-07
-5.50913e-07
-5.44542e-07
-5.48407e-07
-5.43377e-07
-5.42883e-07
-5.39267e-07
-5.48057e-07
-5.41168e-07
-5.28861e-07
-5.29424e-07
-5.26343e-07
-5.23774e-07
-5.22546e-07
-5.21564e-07
-5.23926e-07
-5.30484e-07
-5.29829e-07
-5.26345e-07
-5.16663e-07
-5.27077e-07
-5.27066e-07
-5.27068e-07
-5.27076e-07
-5.30443e-07
-5.31544e-07
-5.23773e-07
-5.2707e-07
-5.2712e-07
-5.27124e-07
-5.27124e-07
-5.27119e-07
-5.27067e-07
-5.41304e-07
-5.36887e-07
-5.28862e-07
-5.22545e-07
-5.27065e-07
-5.27126e-07
-5.27128e-07
-5.27128e-07
-5.27126e-07
-5.2707e-07
-5.45447e-07
-5.3639e-07
-5.29423e-07
-5.21566e-07
-5.27068e-07
-5.27127e-07
-5.2713e-07
-5.27127e-07
-5.27126e-07
-5.2707e-07
-5.4562e-07
-5.32766e-07
-5.23928e-07
-5.2707e-07
-5.27119e-07
-5.27125e-07
-5.27124e-07
-5.27118e-07
-5.2707e-07
-5.44397e-07
-5.41574e-07
-5.30485e-07
-5.30443e-07
-5.27071e-07
-5.2707e-07
-5.27071e-07
-5.27073e-07
-5.52147e-07
-5.38033e-07
-5.34685e-07
-5.2983e-07
-5.31535e-07
-5.41306e-07
-5.45452e-07
-5.45619e-07
-5.44405e-07
-5.38048e-07
-5.41933e-07
-5.36899e-07
-5.36391e-07
-5.32765e-07
-5.41579e-07
-5.34684e-07
-5.22349e-07
-5.22911e-07
-5.19834e-07
-5.17261e-07
-5.16024e-07
-5.15049e-07
-5.17421e-07
-5.23976e-07
-5.23325e-07
-5.19836e-07
-5.10139e-07
-5.20554e-07
-5.20558e-07
-5.20559e-07
-5.20554e-07
-5.23935e-07
-5.25037e-07
-5.1726e-07
-5.20558e-07
-5.20572e-07
-5.20575e-07
-5.20576e-07
-5.20569e-07
-5.20556e-07
-5.34788e-07
-5.30379e-07
-5.22351e-07
-5.16025e-07
-5.20558e-07
-5.20574e-07
-5.20577e-07
-5.20578e-07
-5.20573e-07
-5.20557e-07
-5.38932e-07
-5.29879e-07
-5.22912e-07
-5.15048e-07
-5.20557e-07
-5.20575e-07
-5.20577e-07
-5.20578e-07
-5.20573e-07
-5.20556e-07
-5.39101e-07
-5.26252e-07
-5.1742e-07
-5.20556e-07
-5.20571e-07
-5.20573e-07
-5.20574e-07
-5.20571e-07
-5.20556e-07
-5.3787e-07
-5.35067e-07
-5.23977e-07
-5.23935e-07
-5.20556e-07
-5.20558e-07
-5.20557e-07
-5.20554e-07
-5.45654e-07
-5.3153e-07
-5.2818e-07
-5.23326e-07
-5.25028e-07
-5.34796e-07
-5.38937e-07
-5.39105e-07
-5.37886e-07
-5.31545e-07
-5.35426e-07
-5.30389e-07
-5.29881e-07
-5.26251e-07
-5.35071e-07
-5.28184e-07
-5.15836e-07
-5.16398e-07
-5.13322e-07
-5.10749e-07
-5.09508e-07
-5.08529e-07
-5.10906e-07
-5.17463e-07
-5.16813e-07
-5.13324e-07
-5.03618e-07
-5.14039e-07
-5.14038e-07
-5.14038e-07
-5.14037e-07
-5.17423e-07
-5.18527e-07
-5.10745e-07
-5.14035e-07
-5.14048e-07
-5.1405e-07
-5.14049e-07
-5.14047e-07
-5.14043e-07
-5.2828e-07
-5.23867e-07
-5.15837e-07
-5.09507e-07
-5.14039e-07
-5.14051e-07
-5.14051e-07
-5.1405e-07
-5.14048e-07
-5.14042e-07
-5.32424e-07
-5.23367e-07
-5.16398e-07
-5.08528e-07
-5.14038e-07
-5.14046e-07
-5.14047e-07
-5.14049e-07
-5.14048e-07
-5.14041e-07
-5.3259e-07
-5.19742e-07
-5.10906e-07
-5.14041e-07
-5.14052e-07
-5.14054e-07
-5.14051e-07
-5.14049e-07
-5.14038e-07
-5.31357e-07
-5.28553e-07
-5.17462e-07
-5.17424e-07
-5.14035e-07
-5.14036e-07
-5.14037e-07
-5.14035e-07
-5.39142e-07
-5.25017e-07
-5.21666e-07
-5.16813e-07
-5.18516e-07
-5.28285e-07
-5.32426e-07
-5.32593e-07
-5.31374e-07
-5.25032e-07
-5.28918e-07
-5.23876e-07
-5.23367e-07
-5.19738e-07
-5.28556e-07
-5.21668e-07
-5.09322e-07
-5.09884e-07
-5.06808e-07
-5.04231e-07
-5.02989e-07
-5.02011e-07
-5.04393e-07
-5.10951e-07
-5.103e-07
-5.06811e-07
-4.97102e-07
-5.07523e-07
-5.07523e-07
-5.07524e-07
-5.07524e-07
-5.10911e-07
-5.12014e-07
-5.04228e-07
-5.07524e-07
-5.07528e-07
-5.07528e-07
-5.07528e-07
-5.07527e-07
-5.07524e-07
-5.21765e-07
-5.17354e-07
-5.09323e-07
-5.02989e-07
-5.07523e-07
-5.07525e-07
-5.07528e-07
-5.07526e-07
-5.07528e-07
-5.07523e-07
-5.25909e-07
-5.16853e-07
-5.09884e-07
-5.02011e-07
-5.07524e-07
-5.07529e-07
-5.07529e-07
-5.07527e-07
-5.07531e-07
-5.07524e-07
-5.26075e-07
-5.13227e-07
-5.04393e-07
-5.07521e-07
-5.07526e-07
-5.07527e-07
-5.07526e-07
-5.07527e-07
-5.07521e-07
-5.24842e-07
-5.22041e-07
-5.10949e-07
-5.10915e-07
-5.07524e-07
-5.07524e-07
-5.07523e-07
-5.07524e-07
-5.3263e-07
-5.18505e-07
-5.15154e-07
-5.103e-07
-5.12004e-07
-5.21771e-07
-5.25917e-07
-5.26079e-07
-5.2486e-07
-5.18521e-07
-5.22406e-07
-5.17364e-07
-5.16854e-07
-5.13225e-07
-5.22045e-07
-5.15158e-07
-5.02805e-07
-5.03368e-07
-5.00291e-07
-4.97714e-07
-4.96472e-07
-4.95496e-07
-4.97879e-07
-5.04432e-07
-5.03784e-07
-5.00295e-07
-4.90589e-07
-5.01009e-07
-5.01009e-07
-5.01009e-07
-5.0101e-07
-5.04395e-07
-5.05498e-07
-4.97714e-07
-5.01009e-07
-5.01008e-07
-5.01009e-07
-5.01009e-07
-5.01008e-07
-5.01009e-07
-5.15247e-07
-5.10837e-07
-5.02807e-07
-4.96473e-07
-5.01008e-07
-5.01009e-07
-5.01009e-07
-5.01009e-07
-5.01009e-07
-5.01008e-07
-5.1939e-07
-5.10336e-07
-5.03368e-07
-4.95496e-07
-5.01009e-07
-5.01009e-07
-5.01009e-07
-5.01009e-07
-5.01009e-07
-5.01008e-07
-5.19556e-07
-5.06709e-07
-4.97879e-07
-5.01009e-07
-5.01008e-07
-5.01008e-07
-5.01009e-07
-5.01007e-07
-5.01009e-07
-5.18325e-07
-5.15524e-07
-5.04434e-07
-5.04399e-07
-5.01009e-07
-5.01008e-07
-5.01008e-07
-5.01009e-07
-5.26112e-07
-5.11987e-07
-5.08638e-07
-5.03785e-07
-5.05489e-07
-5.15254e-07
-5.194e-07
-5.19562e-07
-5.18342e-07
-5.12003e-07
-5.15889e-07
-5.10848e-07
-5.10338e-07
-5.06709e-07
-5.15529e-07
-5.08642e-07
-4.9629e-07
-4.96852e-07
-4.93784e-07
-4.91198e-07
-4.89956e-07
-4.8898e-07
-4.91365e-07
-4.97916e-07
-4.97271e-07
-4.93779e-07
-4.84072e-07
-4.94492e-07
-4.94492e-07
-4.94492e-07
-4.94492e-07
-4.9788e-07
-4.98983e-07
-4.91197e-07
-4.94492e-07
-4.94492e-07
-4.94492e-07
-4.94492e-07
-4.94492e-07
-4.94492e-07
-5.08732e-07
-5.04322e-07
-4.96291e-07
-4.89956e-07
-4.94492e-07
-4.94492e-07
-4.94492e-07
-4.94492e-07
-4.94492e-07
-4.94492e-07
-5.12872e-07
-5.03819e-07
-4.96852e-07
-4.88978e-07
-4.94492e-07
-4.94492e-07
-4.94492e-07
-4.94492e-07
-4.94492e-07
-4.94492e-07
-5.13039e-07
-5.00192e-07
-4.91363e-07
-4.94492e-07
-4.94492e-07
-4.94492e-07
-4.94492e-07
-4.94492e-07
-4.94492e-07
-5.11809e-07
-5.09008e-07
-4.97918e-07
-4.97884e-07
-4.94492e-07
-4.94492e-07
-4.94492e-07
-4.94492e-07
-5.19597e-07
-5.05473e-07
-5.02122e-07
-4.97269e-07
-4.98973e-07
-5.08739e-07
-5.12882e-07
-5.13045e-07
-5.11827e-07
-5.05488e-07
-5.09374e-07
-5.04332e-07
-5.03821e-07
-5.00192e-07
-5.09013e-07
-5.02126e-07
-4.89772e-07
-4.90335e-07
-4.87263e-07
-4.84681e-07
-4.83439e-07
-4.82463e-07
-4.84849e-07
-4.914e-07
-4.90754e-07
-4.87263e-07
-4.77553e-07
-4.87975e-07
-4.87975e-07
-4.87975e-07
-4.87975e-07
-4.91365e-07
-4.92467e-07
-4.84681e-07
-4.87975e-07
-4.87976e-07
-4.87976e-07
-4.87976e-07
-4.87976e-07
-4.87975e-07
-5.02215e-07
-4.97806e-07
-4.89774e-07
-4.83439e-07
-4.87975e-07
-4.87976e-07
-4.87975e-07
-4.87975e-07
-4.87976e-07
-4.87975e-07
-5.06357e-07
-4.97303e-07
-4.90335e-07
-4.82461e-07
-4.87975e-07
-4.87976e-07
-4.87976e-07
-4.87976e-07
-4.87976e-07
-4.87975e-07
-5.06523e-07
-4.93676e-07
-4.84847e-07
-4.87975e-07
-4.87976e-07
-4.87975e-07
-4.87975e-07
-4.87976e-07
-4.87975e-07
-5.05293e-07
-5.02492e-07
-4.91402e-07
-4.91367e-07
-4.87975e-07
-4.87975e-07
-4.87975e-07
-4.87975e-07
-5.13081e-07
-4.98957e-07
-4.95605e-07
-4.90753e-07
-4.92457e-07
-5.02223e-07
-5.06367e-07
-5.06532e-07
-5.05311e-07
-4.98972e-07
-5.02858e-07
-4.97816e-07
-4.97305e-07
-4.93677e-07
-5.02498e-07
-4.9561e-07
-4.83257e-07
-4.83819e-07
-4.80749e-07
-4.78165e-07
-4.76923e-07
-4.75947e-07
-4.78333e-07
-4.84884e-07
-4.84238e-07
-4.80746e-07
-4.71037e-07
-4.81459e-07
-4.81459e-07
-4.81459e-07
-4.81459e-07
-4.84849e-07
-4.8595e-07
-4.78165e-07
-4.81459e-07
-4.81459e-07
-4.81459e-07
-4.81459e-07
-4.81459e-07
-4.81459e-07
-4.95699e-07
-4.91289e-07
-4.83258e-07
-4.76923e-07
-4.81459e-07
-4.81459e-07
-4.81459e-07
-4.81459e-07
-4.81459e-07
-4.81459e-07
-4.9984e-07
-4.90787e-07
-4.83819e-07
-4.75945e-07
-4.81459e-07
-4.81459e-07
-4.81459e-07
-4.81459e-07
-4.81459e-07
-4.81459e-07
-5.00006e-07
-4.8716e-07
-4.78331e-07
-4.81459e-07
-4.81459e-07
-4.81459e-07
-4.81459e-07
-4.81459e-07
-4.81459e-07
-4.98777e-07
-4.95976e-07
-4.84885e-07
-4.84851e-07
-4.81459e-07
-4.81459e-07
-4.81459e-07
-4.81459e-07
-5.06565e-07
-4.9244e-07
-4.89089e-07
-4.84236e-07
-4.8594e-07
-4.95706e-07
-4.9985e-07
-5.00015e-07
-4.98794e-07
-4.92455e-07
-4.96342e-07
-4.913e-07
-4.9079e-07
-4.8716e-07
-4.95981e-07
-4.89094e-07
-4.7674e-07
-4.77302e-07
-4.74232e-07
-4.71648e-07
-4.70406e-07
-4.69431e-07
-4.71817e-07
-4.78366e-07
-4.7772e-07
-4.7423e-07
-4.64521e-07
-4.74943e-07
-4.74943e-07
-4.74943e-07
-4.74943e-07
-4.78331e-07
-4.79433e-07
-4.71648e-07
-4.74943e-07
-4.74943e-07
-4.74943e-07
-4.74943e-07
-4.74943e-07
-4.74943e-07
-4.89182e-07
-4.84773e-07
-4.76742e-07
-4.70406e-07
-4.74943e-07
-4.74943e-07
-4.74943e-07
-4.74943e-07
-4.74943e-07
-4.74943e-07
-4.93323e-07
-4.84271e-07
-4.77303e-07
-4.69429e-07
-4.74943e-07
-4.74943e-07
-4.74943e-07
-4.74943e-07
-4.74943e-07
-4.74943e-07
-4.9349e-07
-4.80644e-07
-4.71815e-07
-4.74943e-07
-4.74943e-07
-4.74943e-07
-4.74943e-07
-4.74943e-07
-4.74943e-07
-4.9226e-07
-4.8946e-07
-4.78369e-07
-4.78335e-07
-4.74943e-07
-4.74943e-07
-4.74943e-07
-4.74943e-07
-5.00049e-07
-4.85924e-07
-4.82573e-07
-4.7772e-07
-4.79424e-07
-4.8919e-07
-4.93334e-07
-4.93499e-07
-4.92278e-07
-4.85939e-07
-4.89825e-07
-4.84784e-07
-4.84273e-07
-4.80644e-07
-4.89465e-07
-4.82578e-07
-4.70225e-07
-4.70787e-07
-4.67716e-07
-4.65132e-07
-4.6389e-07
-4.62915e-07
-4.653e-07
-4.71851e-07
-4.71205e-07
-4.67714e-07
-4.58006e-07
-4.68427e-07
-4.68427e-07
-4.68427e-07
-4.68427e-07
-4.71816e-07
-4.72918e-07
-4.65132e-07
-4.68427e-07
-4.68427e-07
-4.68427e-07
-4.68427e-07
-4.68427e-07
-4.68427e-07
-4.82666e-07
-4.78257e-07
-4.70226e-07
-4.6389e-07
-4.68427e-07
-4.68427e-07
-4.68427e-07
-4.68427e-07
-4.68427e-07
-4.68427e-07
-4.86807e-07
-4.77754e-07
-4.70787e-07
-4.62913e-07
-4.68427e-07
-4.68427e-07
-4.68427e-07
-4.68427e-07
-4.68427e-07
-4.68427e-07
-4.86974e-07
-4.74127e-07
-4.65298e-07
-4.68427e-07
-4.68427e-07
-4.68427e-07
-4.68427e-07
-4.68427e-07
-4.68427e-07
-4.85744e-07
-4.82944e-07
-4.71853e-07
-4.71819e-07
-4.68427e-07
-4.68427e-07
-4.68427e-07
-4.68427e-07
-4.93533e-07
-4.79408e-07
-4.76057e-07
-4.71204e-07
-4.72908e-07
-4.82675e-07
-4.86818e-07
-4.86984e-07
-4.85763e-07
-4.79423e-07
-4.83309e-07
-4.78268e-07
-4.77758e-07
-4.74128e-07
-4.82949e-07
-4.76062e-07
-4.63709e-07
-4.6427e-07
-4.612e-07
-4.58616e-07
-4.57374e-07
-4.56399e-07
-4.58785e-07
-4.65333e-07
-4.64689e-07
-4.61198e-07
-4.5149e-07
-4.61911e-07
-4.6191e-07
-4.6191e-07
-4.61911e-07
-4.653e-07
-4.66402e-07
-4.58616e-07
-4.61911e-07
-4.61911e-07
-4.6191e-07
-4.61911e-07
-4.61911e-07
-4.61911e-07
-4.7615e-07
-4.7174e-07
-4.63709e-07
-4.57374e-07
-4.61911e-07
-4.61911e-07
-4.61911e-07
-4.61911e-07
-4.61911e-07
-4.61911e-07
-4.80291e-07
-4.71238e-07
-4.64271e-07
-4.56397e-07
-4.61911e-07
-4.61911e-07
-4.61911e-07
-4.61911e-07
-4.61911e-07
-4.61911e-07
-4.80458e-07
-4.67611e-07
-4.58782e-07
-4.61911e-07
-4.61911e-07
-4.61911e-07
-4.61911e-07
-4.61911e-07
-4.61911e-07
-4.79228e-07
-4.76427e-07
-4.65337e-07
-4.65303e-07
-4.61911e-07
-4.61911e-07
-4.61911e-07
-4.61911e-07
-4.87017e-07
-4.72892e-07
-4.69541e-07
-4.64688e-07
-4.66392e-07
-4.76158e-07
-4.80302e-07
-4.80467e-07
-4.79246e-07
-4.72907e-07
-4.76793e-07
-4.71752e-07
-4.71241e-07
-4.67611e-07
-4.76433e-07
-4.69546e-07
-4.57193e-07
-4.57754e-07
-4.54685e-07
-4.521e-07
-4.50858e-07
-4.49883e-07
-4.52269e-07
-4.58818e-07
-4.58173e-07
-4.54682e-07
-4.44974e-07
-4.55395e-07
-4.55395e-07
-4.55395e-07
-4.55395e-07
-4.58784e-07
-4.59885e-07
-4.521e-07
-4.55395e-07
-4.55395e-07
-4.55395e-07
-4.55395e-07
-4.55395e-07
-4.55395e-07
-4.69636e-07
-4.65224e-07
-4.57193e-07
-4.50858e-07
-4.55395e-07
-4.55395e-07
-4.55395e-07
-4.55395e-07
-4.55395e-07
-4.55395e-07
-4.73775e-07
-4.64723e-07
-4.57755e-07
-4.49881e-07
-4.55395e-07
-4.55395e-07
-4.55395e-07
-4.55395e-07
-4.55395e-07
-4.55395e-07
-4.73942e-07
-4.61096e-07
-4.52266e-07
-4.55395e-07
-4.55395e-07
-4.55395e-07
-4.55395e-07
-4.55395e-07
-4.55395e-07
-4.72712e-07
-4.69912e-07
-4.58821e-07
-4.58787e-07
-4.55395e-07
-4.55395e-07
-4.55395e-07
-4.55395e-07
-4.80501e-07
-4.66376e-07
-4.63025e-07
-4.58172e-07
-4.59876e-07
-4.69642e-07
-4.73785e-07
-4.73949e-07
-4.7273e-07
-4.66391e-07
-4.70277e-07
-4.65236e-07
-4.64726e-07
-4.61095e-07
-4.69917e-07
-4.6303e-07
-4.50677e-07
-4.51239e-07
-4.48169e-07
-4.45584e-07
-4.44342e-07
-4.43367e-07
-4.45752e-07
-4.52304e-07
-4.51657e-07
-4.48166e-07
-4.38458e-07
-4.48879e-07
-4.48879e-07
-4.48879e-07
-4.48879e-07
-4.52268e-07
-4.5337e-07
-4.45584e-07
-4.48879e-07
-4.48879e-07
-4.48879e-07
-4.48879e-07
-4.48879e-07
-4.48879e-07
-4.6312e-07
-4.58709e-07
-4.50678e-07
-4.44342e-07
-4.48879e-07
-4.48879e-07
-4.48879e-07
-4.48879e-07
-4.48879e-07
-4.48879e-07
-4.6726e-07
-4.58207e-07
-4.51239e-07
-4.43365e-07
-4.48879e-07
-4.48879e-07
-4.48879e-07
-4.48879e-07
-4.48879e-07
-4.48879e-07
-4.67426e-07
-4.5458e-07
-4.4575e-07
-4.48879e-07
-4.48879e-07
-4.48879e-07
-4.48879e-07
-4.48879e-07
-4.48879e-07
-4.66197e-07
-4.63396e-07
-4.52305e-07
-4.52271e-07
-4.48879e-07
-4.48879e-07
-4.48879e-07
-4.48879e-07
-4.73985e-07
-4.5986e-07
-4.56509e-07
-4.51656e-07
-4.5336e-07
-4.63127e-07
-4.67271e-07
-4.67435e-07
-4.66215e-07
-4.59876e-07
-4.63762e-07
-4.58721e-07
-4.5821e-07
-4.54583e-07
-4.63402e-07
-4.56514e-07
-4.44161e-07
-4.44723e-07
-4.41653e-07
-4.39068e-07
-4.37826e-07
-4.36851e-07
-4.39237e-07
-4.45789e-07
-4.45141e-07
-4.4165e-07
-4.31942e-07
-4.42363e-07
-4.42363e-07
-4.42363e-07
-4.42363e-07
-4.45752e-07
-4.46853e-07
-4.39068e-07
-4.42363e-07
-4.42363e-07
-4.42363e-07
-4.42363e-07
-4.42363e-07
-4.42363e-07
-4.56604e-07
-4.52193e-07
-4.44162e-07
-4.37826e-07
-4.42363e-07
-4.42363e-07
-4.42363e-07
-4.42363e-07
-4.42363e-07
-4.42363e-07
-4.60743e-07
-4.51691e-07
-4.44723e-07
-4.36849e-07
-4.42363e-07
-4.42363e-07
-4.42363e-07
-4.42363e-07
-4.42363e-07
-4.42363e-07
-4.6091e-07
-4.48064e-07
-4.39234e-07
-4.42363e-07
-4.42363e-07
-4.42363e-07
-4.42363e-07
-4.42363e-07
-4.42363e-07
-4.59681e-07
-4.5688e-07
-4.45789e-07
-4.45755e-07
-4.42363e-07
-4.42363e-07
-4.42363e-07
-4.42363e-07
-4.67469e-07
-4.53344e-07
-4.49993e-07
-4.4514e-07
-4.46844e-07
-4.5661e-07
-4.60751e-07
-4.60916e-07
-4.59698e-07
-4.53359e-07
-4.57245e-07
-4.52204e-07
-4.51694e-07
-4.48064e-07
-4.56888e-07
-4.49998e-07
-4.37644e-07
-4.38206e-07
-4.35136e-07
-4.32552e-07
-4.3131e-07
-4.30334e-07
-4.32718e-07
-4.39273e-07
-4.38624e-07
-4.35134e-07
-4.25426e-07
-4.35847e-07
-4.35847e-07
-4.35847e-07
-4.35847e-07
-4.39234e-07
-4.40337e-07
-4.32552e-07
-4.35847e-07
-4.35846e-07
-4.35847e-07
-4.35847e-07
-4.35847e-07
-4.35847e-07
-4.50088e-07
-4.45677e-07
-4.37645e-07
-4.3131e-07
-4.35847e-07
-4.35847e-07
-4.35847e-07
-4.35847e-07
-4.35847e-07
-4.35847e-07
-4.54227e-07
-4.45174e-07
-4.38206e-07
-4.30333e-07
-4.35847e-07
-4.35847e-07
-4.35847e-07
-4.35847e-07
-4.35847e-07
-4.35847e-07
-4.54394e-07
-4.41547e-07
-4.32718e-07
-4.35847e-07
-4.35846e-07
-4.35846e-07
-4.35846e-07
-4.35846e-07
-4.35847e-07
-4.53164e-07
-4.50364e-07
-4.39273e-07
-4.39239e-07
-4.35847e-07
-4.35847e-07
-4.35847e-07
-4.35847e-07
-4.60953e-07
-4.46828e-07
-4.43477e-07
-4.38624e-07
-4.40328e-07
-4.50094e-07
-4.54235e-07
-4.54401e-07
-4.53183e-07
-4.46843e-07
-4.50729e-07
-4.45688e-07
-4.45178e-07
-4.41549e-07
-4.50371e-07
-4.43481e-07
-4.31128e-07
-4.3169e-07
-4.28621e-07
-4.26037e-07
-4.24793e-07
-4.23818e-07
-4.26202e-07
-4.32758e-07
-4.32109e-07
-4.28617e-07
-4.18909e-07
-4.2933e-07
-4.2933e-07
-4.2933e-07
-4.2933e-07
-4.32718e-07
-4.33821e-07
-4.26035e-07
-4.2933e-07
-4.2933e-07
-4.2933e-07
-4.2933e-07
-4.2933e-07
-4.2933e-07
-4.43572e-07
-4.3916e-07
-4.31129e-07
-4.24794e-07
-4.2933e-07
-4.2933e-07
-4.2933e-07
-4.2933e-07
-4.2933e-07
-4.2933e-07
-4.47711e-07
-4.38658e-07
-4.3169e-07
-4.23816e-07
-4.2933e-07
-4.2933e-07
-4.2933e-07
-4.2933e-07
-4.2933e-07
-4.2933e-07
-4.47877e-07
-4.35031e-07
-4.26202e-07
-4.2933e-07
-4.2933e-07
-4.2933e-07
-4.2933e-07
-4.2933e-07
-4.2933e-07
-4.46648e-07
-4.43847e-07
-4.32756e-07
-4.32722e-07
-4.2933e-07
-4.2933e-07
-4.2933e-07
-4.2933e-07
-4.54436e-07
-4.40311e-07
-4.3696e-07
-4.32107e-07
-4.33812e-07
-4.43578e-07
-4.47719e-07
-4.47884e-07
-4.46666e-07
-4.40326e-07
-4.44213e-07
-4.39171e-07
-4.38661e-07
-4.35033e-07
-4.43854e-07
-4.36962e-07
-4.24612e-07
-4.25174e-07
-4.22105e-07
-4.1952e-07
-4.18277e-07
-4.17302e-07
-4.19686e-07
-4.26242e-07
-4.25592e-07
-4.22101e-07
-4.12394e-07
-4.22814e-07
-4.22814e-07
-4.22814e-07
-4.22814e-07
-4.26201e-07
-4.27305e-07
-4.19519e-07
-4.22814e-07
-4.22814e-07
-4.22814e-07
-4.22814e-07
-4.22814e-07
-4.22814e-07
-4.37055e-07
-4.32644e-07
-4.24613e-07
-4.18278e-07
-4.22814e-07
-4.22814e-07
-4.22814e-07
-4.22814e-07
-4.22814e-07
-4.22814e-07
-4.41194e-07
-4.32142e-07
-4.25174e-07
-4.173e-07
-4.22814e-07
-4.22814e-07
-4.22814e-07
-4.22814e-07
-4.22814e-07
-4.22814e-07
-4.41361e-07
-4.28515e-07
-4.19686e-07
-4.22814e-07
-4.22814e-07
-4.22814e-07
-4.22814e-07
-4.22814e-07
-4.22814e-07
-4.40132e-07
-4.37331e-07
-4.2624e-07
-4.26206e-07
-4.22814e-07
-4.22814e-07
-4.22814e-07
-4.22814e-07
-4.4792e-07
-4.33795e-07
-4.30444e-07
-4.25591e-07
-4.27295e-07
-4.37061e-07
-4.41203e-07
-4.41368e-07
-4.4015e-07
-4.3381e-07
-4.37696e-07
-4.32655e-07
-4.32145e-07
-4.28517e-07
-4.37338e-07
-4.30446e-07
-4.18096e-07
-4.18657e-07
-4.15589e-07
-4.13004e-07
-4.11761e-07
-4.10786e-07
-4.1317e-07
-4.19726e-07
-4.19076e-07
-4.15585e-07
-4.05878e-07
-4.16298e-07
-4.16298e-07
-4.16298e-07
-4.16298e-07
-4.19684e-07
-4.20788e-07
-4.13003e-07
-4.16298e-07
-4.16298e-07
-4.16298e-07
-4.16298e-07
-4.16298e-07
-4.16298e-07
-4.30539e-07
-4.26128e-07
-4.18097e-07
-4.11762e-07
-4.16298e-07
-4.16298e-07
-4.16298e-07
-4.16298e-07
-4.16298e-07
-4.16298e-07
-4.34678e-07
-4.25626e-07
-4.18658e-07
-4.10784e-07
-4.16298e-07
-4.16298e-07
-4.16298e-07
-4.16298e-07
-4.16298e-07
-4.16298e-07
-4.34845e-07
-4.21999e-07
-4.1317e-07
-4.16298e-07
-4.16298e-07
-4.16298e-07
-4.16298e-07
-4.16298e-07
-4.16298e-07
-4.33615e-07
-4.30815e-07
-4.19724e-07
-4.1969e-07
-4.16298e-07
-4.16298e-07
-4.16298e-07
-4.16298e-07
-4.41404e-07
-4.27279e-07
-4.23928e-07
-4.19075e-07
-4.20779e-07
-4.30545e-07
-4.34687e-07
-4.34852e-07
-4.33634e-07
-4.27294e-07
-4.3118e-07
-4.26139e-07
-4.25629e-07
-4.22001e-07
-4.30821e-07
-4.2393e-07
-4.1158e-07
-4.12142e-07
-4.09073e-07
-4.06488e-07
-4.05245e-07
-4.0427e-07
-4.06654e-07
-4.13209e-07
-4.1256e-07
-4.09069e-07
-3.99362e-07
-4.09782e-07
-4.09782e-07
-4.09782e-07
-4.09782e-07
-4.13169e-07
-4.14273e-07
-4.06487e-07
-4.09782e-07
-4.09782e-07
-4.09782e-07
-4.09782e-07
-4.09782e-07
-4.09782e-07
-4.24023e-07
-4.19612e-07
-4.11581e-07
-4.05246e-07
-4.09782e-07
-4.09782e-07
-4.09782e-07
-4.09782e-07
-4.09782e-07
-4.09782e-07
-4.28162e-07
-4.1911e-07
-4.12142e-07
-4.04268e-07
-4.09782e-07
-4.09782e-07
-4.09782e-07
-4.09782e-07
-4.09782e-07
-4.09782e-07
-4.28329e-07
-4.15483e-07
-4.06654e-07
-4.09782e-07
-4.09782e-07
-4.09782e-07
-4.09782e-07
-4.09782e-07
-4.09782e-07
-4.27099e-07
-4.24299e-07
-4.13208e-07
-4.13174e-07
-4.09782e-07
-4.09782e-07
-4.09782e-07
-4.09782e-07
-4.34888e-07
-4.20763e-07
-4.17412e-07
-4.12559e-07
-4.14263e-07
-4.24029e-07
-4.28171e-07
-4.28336e-07
-4.27118e-07
-4.20778e-07
-4.24664e-07
-4.19623e-07
-4.19113e-07
-4.15485e-07
-4.24305e-07
-4.17414e-07
-4.05064e-07
-4.05626e-07
-4.02557e-07
-3.99972e-07
-3.98729e-07
-3.97754e-07
-4.00139e-07
-4.06695e-07
-4.06044e-07
-4.02553e-07
-3.92846e-07
-4.03266e-07
-4.03266e-07
-4.03266e-07
-4.03266e-07
-4.06653e-07
-4.07757e-07
-3.99972e-07
-4.03266e-07
-4.03266e-07
-4.03266e-07
-4.03266e-07
-4.03266e-07
-4.03266e-07
-4.17507e-07
-4.13096e-07
-4.05065e-07
-3.9873e-07
-4.03266e-07
-4.03266e-07
-4.03266e-07
-4.03266e-07
-4.03266e-07
-4.03266e-07
-4.21646e-07
-4.12594e-07
-4.05626e-07
-3.97752e-07
-4.03266e-07
-4.03266e-07
-4.03266e-07
-4.03266e-07
-4.03266e-07
-4.03266e-07
-4.21813e-07
-4.08967e-07
-4.00138e-07
-4.03266e-07
-4.03266e-07
-4.03266e-07
-4.03266e-07
-4.03266e-07
-4.03266e-07
-4.20584e-07
-4.17783e-07
-4.06692e-07
-4.06658e-07
-4.03266e-07
-4.03266e-07
-4.03266e-07
-4.03266e-07
-4.28372e-07
-4.14247e-07
-4.10896e-07
-4.06043e-07
-4.07748e-07
-4.17513e-07
-4.21655e-07
-4.2182e-07
-4.20602e-07
-4.14262e-07
-4.18149e-07
-4.13107e-07
-4.12597e-07
-4.08969e-07
-4.17789e-07
-4.10898e-07
-3.98548e-07
-3.9911e-07
-3.96041e-07
-3.93456e-07
-3.92213e-07
-3.91238e-07
-3.93623e-07
-4.00178e-07
-3.99528e-07
-3.96037e-07
-3.8633e-07
-3.9675e-07
-3.9675e-07
-3.9675e-07
-3.9675e-07
-4.00137e-07
-4.0124e-07
-3.93455e-07
-3.9675e-07
-3.9675e-07
-3.9675e-07
-3.9675e-07
-3.9675e-07
-3.9675e-07
-4.10991e-07
-4.0658e-07
-3.98549e-07
-3.92214e-07
-3.9675e-07
-3.9675e-07
-3.9675e-07
-3.9675e-07
-3.9675e-07
-3.9675e-07
-4.1513e-07
-4.06078e-07
-3.9911e-07
-3.91236e-07
-3.9675e-07
-3.9675e-07
-3.9675e-07
-3.9675e-07
-3.9675e-07
-3.9675e-07
-4.15297e-07
-4.02451e-07
-3.93622e-07
-3.9675e-07
-3.9675e-07
-3.9675e-07
-3.9675e-07
-3.9675e-07
-3.9675e-07
-4.14068e-07
-4.11267e-07
-4.00176e-07
-4.00142e-07
-3.9675e-07
-3.9675e-07
-3.96751e-07
-3.9675e-07
-4.21856e-07
-4.07731e-07
-4.0438e-07
-3.99527e-07
-4.01232e-07
-4.10997e-07
-4.15139e-07
-4.15304e-07
-4.14086e-07
-4.07746e-07
-4.11633e-07
-4.06591e-07
-4.06081e-07
-4.02453e-07
-4.11273e-07
-4.04382e-07
-3.92031e-07
-3.92593e-07
-3.89525e-07
-3.8694e-07
-3.85696e-07
-3.84722e-07
-3.87107e-07
-3.93662e-07
-3.93012e-07
-3.89521e-07
-3.79813e-07
-3.90234e-07
-3.90234e-07
-3.90234e-07
-3.90234e-07
-3.93621e-07
-3.94724e-07
-3.86939e-07
-3.90234e-07
-3.90233e-07
-3.90234e-07
-3.90234e-07
-3.90234e-07
-3.90234e-07
-4.04475e-07
-4.00064e-07
-3.92032e-07
-3.85698e-07
-3.90234e-07
-3.90233e-07
-3.90234e-07
-3.90234e-07
-3.90234e-07
-3.90234e-07
-4.08614e-07
-3.99562e-07
-3.92594e-07
-3.84721e-07
-3.90234e-07
-3.90233e-07
-3.90234e-07
-3.90233e-07
-3.90234e-07
-3.90234e-07
-4.08781e-07
-3.95935e-07
-3.87105e-07
-3.90234e-07
-3.90233e-07
-3.90234e-07
-3.90234e-07
-3.90233e-07
-3.90234e-07
-4.07551e-07
-4.04751e-07
-3.9366e-07
-3.93626e-07
-3.90233e-07
-3.90233e-07
-3.90233e-07
-3.90234e-07
-4.15339e-07
-4.01215e-07
-3.97864e-07
-3.93011e-07
-3.94715e-07
-4.04483e-07
-4.08624e-07
-4.0879e-07
-4.07571e-07
-4.0123e-07
-4.05116e-07
-4.00075e-07
-3.99565e-07
-3.95937e-07
-4.04757e-07
-3.97866e-07
-3.85515e-07
-3.86077e-07
-3.83008e-07
-3.80424e-07
-3.7918e-07
-3.78205e-07
-3.80591e-07
-3.87143e-07
-3.86496e-07
-3.83004e-07
-3.73295e-07
-3.83717e-07
-3.83717e-07
-3.83717e-07
-3.83717e-07
-3.87109e-07
-3.88208e-07
-3.80422e-07
-3.83717e-07
-3.83717e-07
-3.83717e-07
-3.83717e-07
-3.83717e-07
-3.83717e-07
-3.97958e-07
-3.93547e-07
-3.85516e-07
-3.79181e-07
-3.83717e-07
-3.83717e-07
-3.83717e-07
-3.83717e-07
-3.83717e-07
-3.83717e-07
-4.02097e-07
-3.93045e-07
-3.86077e-07
-3.78204e-07
-3.83717e-07
-3.83717e-07
-3.83717e-07
-3.83717e-07
-3.83717e-07
-3.83717e-07
-4.02264e-07
-3.89418e-07
-3.80588e-07
-3.83717e-07
-3.83717e-07
-3.83717e-07
-3.83717e-07
-3.83717e-07
-3.83717e-07
-4.01034e-07
-3.98234e-07
-3.87143e-07
-3.87109e-07
-3.83717e-07
-3.83717e-07
-3.83717e-07
-3.83717e-07
-4.08823e-07
-3.94698e-07
-3.91347e-07
-3.86494e-07
-3.88198e-07
-3.97966e-07
-4.02107e-07
-4.02273e-07
-4.01054e-07
-3.94713e-07
-3.98599e-07
-3.93558e-07
-3.93048e-07
-3.8942e-07
-3.9824e-07
-3.91349e-07
-3.78998e-07
-3.7956e-07
-3.76491e-07
-3.73907e-07
-3.72663e-07
-3.71688e-07
-3.74074e-07
-3.80628e-07
-3.79979e-07
-3.76488e-07
-3.6678e-07
-3.772e-07
-3.77201e-07
-3.772e-07
-3.77201e-07
-3.80592e-07
-3.81691e-07
-3.73906e-07
-3.772e-07
-3.772e-07
-3.772e-07
-3.772e-07
-3.772e-07
-3.772e-07
-3.91442e-07
-3.8703e-07
-3.78999e-07
-3.72664e-07