/*--------------------------------*- C++ -*----------------------------------*\
| =========                 |                                                 |
| \\      /  F ield         | OpenFOAM: The Open Source CFD Toolbox           |
|  \\    /   O peration     | Version:  v2012                                 |
|   \\  /    A nd           | Website:  www.openfoam.com                      |
|    \\/     M anipulation  |                                                 |
\*---------------------------------------------------------------------------*/
FoamFile
{
    version     2.0;
    format      ascii;
    class       volScalarField;
    location    "0.255";
    object      p;
}
// * * * * * * * * * * * * * * * * * * * * * * * * * * * * * * * * * * * * * //

dimensions      [0 2 -2 0 0 0 0];


internalField   nonuniform List<scalar> 
189320
(
2.32538e-07
2.33884e-07
2.24888e-07
2.24364e-07
2.21157e-07
2.20227e-07
2.2297e-07
2.24123e-07
2.2188e-07
2.24902e-07
2.20039e-07
2.20443e-07
2.19223e-07
2.18943e-07
2.19877e-07
2.20336e-07
2.23172e-07
2.24422e-07
2.20448e-07
2.18575e-07
2.17764e-07
2.17606e-07
2.18159e-07
2.19461e-07
2.20131e-07
2.25032e-07
2.32403e-07
2.21163e-07
2.19226e-07
2.17764e-07
2.17177e-07
2.17078e-07
2.17415e-07
2.18397e-07
2.20516e-07
2.24854e-07
2.33727e-07
2.20172e-07
2.18931e-07
2.17606e-07
2.17083e-07
2.1699e-07
2.17279e-07
2.18128e-07
2.20253e-07
2.22712e-07
2.22944e-07
2.19872e-07
2.18164e-07
2.17424e-07
2.17286e-07
2.17739e-07
2.18888e-07
2.20477e-07
2.34493e-07
2.24111e-07
2.20336e-07
2.19471e-07
2.18418e-07
2.18154e-07
2.18903e-07
2.20385e-07
2.20002e-07
2.24693e-07
2.21877e-07
2.23175e-07
2.20145e-07
2.20557e-07
2.20315e-07
2.20519e-07
2.20025e-07
2.19058e-07
2.25009e-07
2.24897e-07
2.22882e-07
2.34573e-07
2.24743e-07
2.13216e-07
2.1302e-07
2.14967e-07
2.14302e-07
2.14545e-07
2.14445e-07
2.14363e-07
2.12316e-07
2.13129e-07
2.15204e-07
2.17327e-07
2.08968e-07
2.08366e-07
2.08367e-07
2.08941e-07
2.10923e-07
2.10143e-07
2.146e-07
2.08955e-07
2.06584e-07
2.07039e-07
2.07028e-07
2.06579e-07
2.08969e-07
2.04914e-07
2.08604e-07
2.13328e-07
2.14686e-07
2.08397e-07
2.07039e-07
2.07254e-07
2.0725e-07
2.07042e-07
2.08379e-07
2.04563e-07
2.08157e-07
2.13097e-07
2.14533e-07
2.08401e-07
2.07044e-07
2.07258e-07
2.07257e-07
2.07052e-07
2.08389e-07
2.04335e-07
2.09671e-07
2.14437e-07
2.08968e-07
2.06599e-07
2.07058e-07
2.07048e-07
2.06603e-07
2.08991e-07
2.0442e-07
2.05064e-07
2.12387e-07
2.10862e-07
2.08989e-07
2.08416e-07
2.08418e-07
2.08975e-07
1.97913e-07
2.05878e-07
2.10408e-07
2.1318e-07
2.10174e-07
2.04969e-07
2.04615e-07
2.04416e-07
2.04603e-07
2.06605e-07
2.05427e-07
2.08651e-07
2.08224e-07
2.09754e-07
2.05204e-07
2.10639e-07
2.10512e-07
2.10023e-07
2.12251e-07
2.12206e-07
2.12695e-07
2.12976e-07
2.11962e-07
2.09577e-07
2.10066e-07
2.12262e-07
2.15832e-07
2.07614e-07
2.0745e-07
2.07448e-07
2.07612e-07
2.0832e-07
2.07517e-07
2.12224e-07
2.07617e-07
2.06238e-07
2.06212e-07
2.06202e-07
2.0624e-07
2.07617e-07
2.01316e-07
2.05358e-07
2.10541e-07
2.12715e-07
2.07459e-07
2.06207e-07
2.06215e-07
2.06208e-07
2.06209e-07
2.07451e-07
1.99123e-07
2.05648e-07
2.10053e-07
2.12999e-07
2.07464e-07
2.06208e-07
2.06213e-07
2.06212e-07
2.06213e-07
2.07455e-07
1.99078e-07
2.06566e-07
2.11978e-07
2.07623e-07
2.06247e-07
2.06217e-07
2.06209e-07
2.06248e-07
2.07626e-07
1.99528e-07
2.02087e-07
2.09611e-07
2.08351e-07
2.07634e-07
2.07466e-07
2.07465e-07
2.0763e-07
1.9475e-07
2.03177e-07
2.06747e-07
2.101e-07
2.07553e-07
2.01339e-07
1.99148e-07
1.99102e-07
1.99555e-07
2.03176e-07
2.02009e-07
2.05375e-07
2.05668e-07
2.06589e-07
2.02117e-07
2.06772e-07
2.08224e-07
2.07728e-07
2.09977e-07
2.10086e-07
2.10683e-07
2.11064e-07
2.09788e-07
2.07351e-07
2.0775e-07
2.09981e-07
2.13997e-07
2.05701e-07
2.05655e-07
2.05653e-07
2.05697e-07
2.06018e-07
2.05196e-07
2.10083e-07
2.05701e-07
2.05185e-07
2.05147e-07
2.05142e-07
2.05183e-07
2.05701e-07
1.98898e-07
2.03022e-07
2.08232e-07
2.10693e-07
2.05663e-07
2.05146e-07
2.05125e-07
2.05121e-07
2.05144e-07
2.05653e-07
1.96352e-07
2.03267e-07
2.07737e-07
2.11073e-07
2.05661e-07
2.05144e-07
2.05121e-07
2.05121e-07
2.05146e-07
2.05657e-07
1.96304e-07
2.04227e-07
2.09795e-07
2.05705e-07
2.05186e-07
2.05148e-07
2.05143e-07
2.05186e-07
2.057e-07
1.96808e-07
1.99704e-07
2.07356e-07
2.06026e-07
2.05707e-07
2.05664e-07
2.05662e-07
2.05704e-07
1.92066e-07
2.00958e-07
2.04364e-07
2.07757e-07
2.05202e-07
1.98912e-07
1.96367e-07
1.96309e-07
1.96799e-07
2.00954e-07
1.99643e-07
2.03037e-07
2.0327e-07
2.0423e-07
1.99706e-07
2.04367e-07
2.06202e-07
2.05706e-07
2.07945e-07
2.08112e-07
2.08818e-07
2.09185e-07
2.07777e-07
2.05326e-07
2.05699e-07
2.07937e-07
2.12108e-07
2.03781e-07
2.0377e-07
2.0377e-07
2.03781e-07
2.03968e-07
2.03142e-07
2.08111e-07
2.03781e-07
2.03595e-07
2.03581e-07
2.03579e-07
2.03595e-07
2.0378e-07
1.96843e-07
2.00982e-07
2.06214e-07
2.088e-07
2.03769e-07
2.03581e-07
2.03573e-07
2.03571e-07
2.03581e-07
2.0377e-07
1.94249e-07
2.01231e-07
2.05717e-07
2.09186e-07
2.03769e-07
2.03581e-07
2.03571e-07
2.0357e-07
2.03582e-07
2.03769e-07
1.94214e-07
2.02197e-07
2.07777e-07
2.03781e-07
2.03595e-07
2.03581e-07
2.03578e-07
2.03594e-07
2.03781e-07
1.94804e-07
1.97651e-07
2.05327e-07
2.03973e-07
2.03782e-07
2.03771e-07
2.0377e-07
2.03781e-07
1.89936e-07
1.98933e-07
2.02297e-07
2.05702e-07
2.03138e-07
1.96848e-07
1.9424e-07
1.94209e-07
1.94799e-07
1.98932e-07
1.97579e-07
2.00991e-07
2.01234e-07
2.02202e-07
1.97656e-07
2.02301e-07
2.04278e-07
2.03782e-07
2.06004e-07
2.06194e-07
2.0691e-07
2.07296e-07
2.05844e-07
2.03389e-07
2.03757e-07
2.06002e-07
2.10224e-07
2.01878e-07
2.01875e-07
2.01875e-07
2.01878e-07
2.02027e-07
2.01196e-07
2.06192e-07
2.01876e-07
2.0181e-07
2.01804e-07
2.01804e-07
2.0181e-07
2.01876e-07
1.94904e-07
1.99057e-07
2.04282e-07
2.06912e-07
2.01874e-07
2.01804e-07
2.01802e-07
2.01802e-07
2.01804e-07
2.01874e-07
1.92279e-07
1.99292e-07
2.03785e-07
2.07298e-07
2.01876e-07
2.01805e-07
2.01802e-07
2.01803e-07
2.01805e-07
2.01875e-07
1.92259e-07
2.00265e-07
2.05846e-07
2.01879e-07
2.01811e-07
2.01805e-07
2.01805e-07
2.01812e-07
2.01878e-07
1.92882e-07
1.95709e-07
2.03388e-07
2.02026e-07
2.01878e-07
2.01876e-07
2.01875e-07
2.01878e-07
1.87962e-07
1.96995e-07
2.00352e-07
2.03756e-07
2.01199e-07
1.94906e-07
1.92278e-07
1.92255e-07
1.92874e-07
1.96991e-07
1.9562e-07
1.99049e-07
1.99295e-07
2.00265e-07
1.95711e-07
2.00354e-07
2.02381e-07
2.01885e-07
2.04098e-07
2.04302e-07
2.05035e-07
2.05411e-07
2.03933e-07
2.01485e-07
2.01851e-07
2.04097e-07
2.08337e-07
1.99981e-07
1.99987e-07
1.99985e-07
1.9998e-07
2.0012e-07
1.99288e-07
2.043e-07
1.99984e-07
1.9996e-07
1.99959e-07
1.99959e-07
1.9996e-07
1.99986e-07
1.92997e-07
1.97146e-07
2.02383e-07
2.05019e-07
1.99986e-07
1.99958e-07
1.99958e-07
1.99958e-07
1.99958e-07
1.99985e-07
1.90368e-07
1.97389e-07
2.01886e-07
2.05412e-07
1.99985e-07
1.99958e-07
1.99957e-07
1.99958e-07
1.99958e-07
1.99984e-07
1.90358e-07
1.98366e-07
2.03936e-07
1.99986e-07
1.99962e-07
1.9996e-07
1.9996e-07
1.99962e-07
1.99984e-07
1.90986e-07
1.93804e-07
2.01483e-07
2.0012e-07
1.99985e-07
1.99986e-07
1.99985e-07
1.99984e-07
1.86045e-07
1.95099e-07
1.98444e-07
2.01847e-07
1.99284e-07
1.93002e-07
1.90369e-07
1.90359e-07
1.90981e-07
1.9509e-07
1.93707e-07
1.97137e-07
1.97391e-07
1.98364e-07
1.93799e-07
1.98446e-07
2.00485e-07
1.99986e-07
2.02206e-07
2.02411e-07
2.03144e-07
2.03523e-07
2.02042e-07
1.9959e-07
1.99956e-07
2.02204e-07
2.06452e-07
1.98096e-07
1.98094e-07
1.98094e-07
1.98096e-07
1.98227e-07
1.97395e-07
2.02411e-07
1.98094e-07
1.98088e-07
1.98087e-07
1.98086e-07
1.9809e-07
1.98095e-07
1.91108e-07
1.95252e-07
2.00485e-07
2.03151e-07
1.98094e-07
1.98087e-07
1.98086e-07
1.98085e-07
1.98088e-07
1.98095e-07
1.88476e-07
1.95495e-07
1.99986e-07
2.03529e-07
1.98095e-07
1.98087e-07
1.98086e-07
1.98085e-07
1.98087e-07
1.98096e-07
1.88469e-07
1.96471e-07
2.0205e-07
1.98096e-07
1.98089e-07
1.98088e-07
1.98087e-07
1.98088e-07
1.98096e-07
1.89102e-07
1.91906e-07
1.99591e-07
1.98227e-07
1.98095e-07
1.98094e-07
1.98095e-07
1.98096e-07
1.84147e-07
1.93202e-07
1.96546e-07
1.99954e-07
1.97392e-07
1.91108e-07
1.88475e-07
1.88465e-07
1.89091e-07
1.93194e-07
1.91812e-07
1.95243e-07
1.95495e-07
1.96472e-07
1.91904e-07
1.96548e-07
1.98596e-07
1.981e-07
2.00315e-07
2.0052e-07
2.01246e-07
2.01632e-07
2.00148e-07
1.977e-07
1.98064e-07
2.00313e-07
2.04566e-07
1.96206e-07
1.96206e-07
1.96206e-07
1.96207e-07
1.96335e-07
1.95502e-07
2.00522e-07
1.96209e-07
1.96202e-07
1.96201e-07
1.96201e-07
1.96202e-07
1.96204e-07
1.89215e-07
1.93361e-07
1.98595e-07
2.01263e-07
1.96206e-07
1.96201e-07
1.96201e-07
1.96201e-07
1.96202e-07
1.96204e-07
1.86579e-07
1.93604e-07
1.98098e-07
2.01638e-07
1.96207e-07
1.96203e-07
1.96203e-07
1.96202e-07
1.96202e-07
1.96205e-07
1.86575e-07
1.94585e-07
2.00154e-07
1.96204e-07
1.962e-07
1.96199e-07
1.962e-07
1.96201e-07
1.96207e-07
1.87209e-07
1.90016e-07
1.97701e-07
1.96334e-07
1.96209e-07
1.96209e-07
1.96207e-07
1.96209e-07
1.82257e-07
1.91311e-07
1.94656e-07
1.98063e-07
1.95501e-07
1.89216e-07
1.86582e-07
1.86573e-07
1.872e-07
1.91303e-07
1.89919e-07
1.93351e-07
1.93604e-07
1.9458e-07
1.90014e-07
1.94659e-07
1.96706e-07
1.96209e-07
1.98425e-07
1.98632e-07
1.99359e-07
1.99744e-07
1.98256e-07
1.95809e-07
1.96174e-07
1.98423e-07
2.02677e-07
1.94317e-07
1.94318e-07
1.94317e-07
1.94317e-07
1.94444e-07
1.93612e-07
1.98632e-07
1.94317e-07
1.94314e-07
1.94314e-07
1.94315e-07
1.94315e-07
1.94317e-07
1.87325e-07
1.9147e-07
1.96703e-07
1.99374e-07
1.94317e-07
1.94317e-07
1.94315e-07
1.94317e-07
1.94315e-07
1.94317e-07
1.8469e-07
1.91713e-07
1.96205e-07
1.99749e-07
1.94317e-07
1.94314e-07
1.94314e-07
1.94316e-07
1.94313e-07
1.94317e-07
1.84685e-07
1.92694e-07
1.98262e-07
1.94319e-07
1.94316e-07
1.94316e-07
1.94316e-07
1.94315e-07
1.94319e-07
1.8532e-07
1.88125e-07
1.95809e-07
1.94441e-07
1.94317e-07
1.94317e-07
1.94317e-07
1.94317e-07
1.80367e-07
1.8942e-07
1.92765e-07
1.96171e-07
1.93609e-07
1.87324e-07
1.84685e-07
1.84682e-07
1.85309e-07
1.89412e-07
1.88028e-07
1.9146e-07
1.91712e-07
1.92691e-07
1.88122e-07
1.92767e-07
1.94815e-07
1.94316e-07
1.96537e-07
1.96745e-07
1.97473e-07
1.97855e-07
1.96368e-07
1.93922e-07
1.94285e-07
1.96533e-07
2.00784e-07
1.92427e-07
1.92427e-07
1.92427e-07
1.92427e-07
1.92555e-07
1.91722e-07
1.96742e-07
1.92426e-07
1.92428e-07
1.92427e-07
1.92428e-07
1.92428e-07
1.92427e-07
1.85438e-07
1.89582e-07
1.94812e-07
1.97484e-07
1.92427e-07
1.92427e-07
1.92428e-07
1.92428e-07
1.92428e-07
1.92428e-07
1.82804e-07
1.89825e-07
1.94312e-07
1.9786e-07
1.92428e-07
1.92428e-07
1.92428e-07
1.92428e-07
1.92428e-07
1.92428e-07
1.82799e-07
1.90804e-07
1.96374e-07
1.92427e-07
1.92428e-07
1.92428e-07
1.92428e-07
1.92428e-07
1.92427e-07
1.83433e-07
1.86235e-07
1.9392e-07
1.92551e-07
1.92427e-07
1.92428e-07
1.92428e-07
1.92427e-07
1.78479e-07
1.87532e-07
1.90875e-07
1.94282e-07
1.91719e-07
1.85436e-07
1.82797e-07
1.82793e-07
1.83421e-07
1.87524e-07
1.8614e-07
1.89572e-07
1.89823e-07
1.90802e-07
1.86233e-07
1.90877e-07
1.92927e-07
1.92429e-07
1.94643e-07
1.94857e-07
1.95583e-07
1.95965e-07
1.94477e-07
1.92031e-07
1.92393e-07
1.94644e-07
1.98896e-07
1.90539e-07
1.90539e-07
1.90539e-07
1.90539e-07
1.90665e-07
1.89832e-07
1.94854e-07
1.90539e-07
1.90539e-07
1.90539e-07
1.90539e-07
1.9054e-07
1.90539e-07
1.83549e-07
1.87693e-07
1.92924e-07
1.95596e-07
1.90539e-07
1.90539e-07
1.9054e-07
1.9054e-07
1.90539e-07
1.9054e-07
1.80916e-07
1.87936e-07
1.92424e-07
1.95972e-07
1.9054e-07
1.9054e-07
1.9054e-07
1.9054e-07
1.90539e-07
1.9054e-07
1.80911e-07
1.88916e-07
1.94484e-07
1.9054e-07
1.9054e-07
1.9054e-07
1.9054e-07
1.9054e-07
1.90539e-07
1.81543e-07
1.84346e-07
1.9203e-07
1.90662e-07
1.9054e-07
1.90539e-07
1.90539e-07
1.90539e-07
1.7659e-07
1.85643e-07
1.88986e-07
1.92393e-07
1.89831e-07
1.83547e-07
1.80909e-07
1.80905e-07
1.81533e-07
1.85635e-07
1.8425e-07
1.87683e-07
1.87935e-07
1.88914e-07
1.84344e-07
1.88989e-07
1.9104e-07
1.90542e-07
1.92759e-07
1.9297e-07
1.93697e-07
1.94079e-07
1.92591e-07
1.90143e-07
1.90505e-07
1.92757e-07
1.97011e-07
1.88652e-07
1.88653e-07
1.88653e-07
1.88652e-07
1.88776e-07
1.87945e-07
1.92966e-07
1.88652e-07
1.88652e-07
1.88652e-07
1.88652e-07
1.88652e-07
1.88652e-07
1.81661e-07
1.85805e-07
1.91036e-07
1.93709e-07
1.88652e-07
1.88652e-07
1.88653e-07
1.88653e-07
1.88652e-07
1.88653e-07
1.79028e-07
1.86048e-07
1.90536e-07
1.94085e-07
1.88653e-07
1.88652e-07
1.88652e-07
1.88652e-07
1.88652e-07
1.88653e-07
1.79023e-07
1.87029e-07
1.92597e-07
1.88653e-07
1.88652e-07
1.88653e-07
1.88653e-07
1.88652e-07
1.88653e-07
1.79656e-07
1.82459e-07
1.90143e-07
1.88775e-07
1.88653e-07
1.88653e-07
1.88653e-07
1.88652e-07
1.74702e-07
1.83756e-07
1.87099e-07
1.90506e-07
1.87944e-07
1.81659e-07
1.79021e-07
1.79016e-07
1.79645e-07
1.83748e-07
1.82363e-07
1.85795e-07
1.86047e-07
1.87026e-07
1.82457e-07
1.87101e-07
1.89153e-07
1.88655e-07
1.9087e-07
1.91083e-07
1.91809e-07
1.92192e-07
1.90705e-07
1.88256e-07
1.88619e-07
1.9087e-07
1.95124e-07
1.86765e-07
1.86765e-07
1.86766e-07
1.86766e-07
1.8689e-07
1.86058e-07
1.9108e-07
1.86765e-07
1.86765e-07
1.86765e-07
1.86765e-07
1.86765e-07
1.86765e-07
1.79775e-07
1.83919e-07
1.8915e-07
1.91823e-07
1.86765e-07
1.86765e-07
1.86765e-07
1.86765e-07
1.86765e-07
1.86765e-07
1.77142e-07
1.84162e-07
1.8865e-07
1.92198e-07
1.86766e-07
1.86766e-07
1.86766e-07
1.86765e-07
1.86765e-07
1.86766e-07
1.77137e-07
1.85142e-07
1.9071e-07
1.86766e-07
1.86766e-07
1.86766e-07
1.86765e-07
1.86765e-07
1.86765e-07
1.77769e-07
1.80572e-07
1.88257e-07
1.86889e-07
1.86766e-07
1.86766e-07
1.86766e-07
1.86765e-07
1.72816e-07
1.81869e-07
1.85212e-07
1.88619e-07
1.86057e-07
1.79773e-07
1.77136e-07
1.7713e-07
1.77759e-07
1.81861e-07
1.80476e-07
1.83909e-07
1.84161e-07
1.85139e-07
1.8057e-07
1.85215e-07
1.87265e-07
1.86768e-07
1.88983e-07
1.89195e-07
1.89922e-07
1.90304e-07
1.88816e-07
1.8637e-07
1.86732e-07
1.88983e-07
1.93236e-07
1.84877e-07
1.84877e-07
1.84877e-07
1.84877e-07
1.85002e-07
1.84171e-07
1.89192e-07
1.84877e-07
1.84877e-07
1.84877e-07
1.84877e-07
1.84877e-07
1.84877e-07
1.77887e-07
1.82031e-07
1.87262e-07
1.89935e-07
1.84877e-07
1.84877e-07
1.84877e-07
1.84877e-07
1.84877e-07
1.84877e-07
1.75254e-07
1.82274e-07
1.86762e-07
1.9031e-07
1.84878e-07
1.84878e-07
1.84877e-07
1.84877e-07
1.84877e-07
1.84877e-07
1.75249e-07
1.83254e-07
1.88822e-07
1.84878e-07
1.84878e-07
1.84878e-07
1.84877e-07
1.84877e-07
1.84877e-07
1.75881e-07
1.78685e-07
1.86369e-07
1.85001e-07
1.84878e-07
1.84878e-07
1.84877e-07
1.84877e-07
1.70927e-07
1.79981e-07
1.83324e-07
1.86732e-07
1.84169e-07
1.77885e-07
1.75248e-07
1.75242e-07
1.7587e-07
1.79973e-07
1.78588e-07
1.82021e-07
1.82273e-07
1.83251e-07
1.78682e-07
1.83327e-07
1.85376e-07
1.84879e-07
1.87094e-07
1.87306e-07
1.88032e-07
1.88415e-07
1.86927e-07
1.84479e-07
1.84842e-07
1.87093e-07
1.91345e-07
1.82988e-07
1.82988e-07
1.82988e-07
1.82988e-07
1.83112e-07
1.82281e-07
1.87303e-07
1.82988e-07
1.82988e-07
1.82988e-07
1.82988e-07
1.82988e-07
1.82988e-07
1.75998e-07
1.80142e-07
1.85373e-07
1.88046e-07
1.82988e-07
1.82988e-07
1.82988e-07
1.82988e-07
1.82988e-07
1.82988e-07
1.73365e-07
1.80385e-07
1.84873e-07
1.88421e-07
1.82989e-07
1.82989e-07
1.82989e-07
1.82988e-07
1.82988e-07
1.82988e-07
1.73359e-07
1.81365e-07
1.86933e-07
1.82989e-07
1.82989e-07
1.82989e-07
1.82989e-07
1.82988e-07
1.82988e-07
1.73992e-07
1.76795e-07
1.8448e-07
1.83112e-07
1.82989e-07
1.8299e-07
1.82989e-07
1.82988e-07
1.69038e-07
1.78091e-07
1.81435e-07
1.84843e-07
1.82281e-07
1.75998e-07
1.73369e-07
1.73353e-07
1.7398e-07
1.78083e-07
1.76699e-07
1.8013e-07
1.80383e-07
1.81357e-07
1.76791e-07
1.81436e-07
1.83487e-07
1.8299e-07
1.85204e-07
1.85417e-07
1.86143e-07
1.86526e-07
1.85038e-07
1.82593e-07
1.82953e-07
1.85204e-07
1.89457e-07
1.81099e-07
1.811e-07
1.811e-07
1.81099e-07
1.81224e-07
1.80392e-07
1.85414e-07
1.81099e-07
1.81099e-07
1.81099e-07
1.81099e-07
1.81099e-07
1.81099e-07
1.74109e-07
1.78253e-07
1.83484e-07
1.86157e-07
1.81099e-07
1.811e-07
1.81099e-07
1.81099e-07
1.81099e-07
1.81099e-07
1.71476e-07
1.78496e-07
1.82984e-07
1.86532e-07
1.811e-07
1.811e-07
1.811e-07
1.811e-07
1.811e-07
1.81099e-07
1.71471e-07
1.79476e-07
1.85044e-07
1.811e-07
1.811e-07
1.811e-07
1.811e-07
1.81099e-07
1.81099e-07
1.72103e-07
1.74906e-07
1.82591e-07
1.81223e-07
1.811e-07
1.811e-07
1.811e-07
1.81099e-07
1.67149e-07
1.76203e-07
1.79546e-07
1.82953e-07
1.80391e-07
1.74107e-07
1.7147e-07
1.71464e-07
1.72093e-07
1.76195e-07
1.7481e-07
1.78242e-07
1.78494e-07
1.79472e-07
1.74903e-07
1.79548e-07
1.81598e-07
1.81101e-07
1.83316e-07
1.83529e-07
1.84255e-07
1.84637e-07
1.8315e-07
1.80704e-07
1.81065e-07
1.83316e-07
1.87569e-07
1.79211e-07
1.79211e-07
1.79211e-07
1.79211e-07
1.79335e-07
1.78505e-07
1.83526e-07
1.79211e-07
1.79211e-07
1.79211e-07
1.79211e-07
1.79211e-07
1.79211e-07
1.72219e-07
1.76364e-07
1.81596e-07
1.84269e-07
1.79211e-07
1.79211e-07
1.79211e-07
1.79211e-07
1.79211e-07
1.79211e-07
1.69588e-07
1.76608e-07
1.81096e-07
1.84644e-07
1.79212e-07
1.79212e-07
1.79212e-07
1.79211e-07
1.79211e-07
1.79211e-07
1.69582e-07
1.77588e-07
1.83156e-07
1.79212e-07
1.79212e-07
1.79212e-07
1.79211e-07
1.79211e-07
1.79211e-07
1.70215e-07
1.73018e-07
1.80703e-07
1.79335e-07
1.79212e-07
1.79212e-07
1.79211e-07
1.79211e-07
1.65261e-07
1.74315e-07
1.77658e-07
1.81065e-07
1.78503e-07
1.72219e-07
1.69583e-07
1.69578e-07
1.70205e-07
1.74307e-07
1.72922e-07
1.76354e-07
1.76606e-07
1.77585e-07
1.73016e-07
1.7766e-07
1.7971e-07
1.79213e-07
1.81428e-07
1.81641e-07
1.82367e-07
1.82749e-07
1.81262e-07
1.78814e-07
1.79176e-07
1.81428e-07
1.85681e-07
1.77323e-07
1.77323e-07
1.77323e-07
1.77323e-07
1.77447e-07
1.76616e-07
1.81638e-07
1.77323e-07
1.77323e-07
1.77323e-07
1.77323e-07
1.77323e-07
1.77323e-07
1.70331e-07
1.74476e-07
1.79707e-07
1.8238e-07
1.77323e-07
1.77323e-07
1.77323e-07
1.77323e-07
1.77323e-07
1.77323e-07
1.67699e-07
1.74719e-07
1.79208e-07
1.82756e-07
1.77324e-07
1.77324e-07
1.77323e-07
1.77323e-07
1.77323e-07
1.77323e-07
1.67694e-07
1.757e-07
1.81268e-07
1.77324e-07
1.77324e-07
1.77324e-07
1.77323e-07
1.77323e-07
1.77323e-07
1.68327e-07
1.7113e-07
1.78815e-07
1.77447e-07
1.77324e-07
1.77324e-07
1.77323e-07
1.77323e-07
1.63373e-07
1.72426e-07
1.7577e-07
1.79178e-07
1.76616e-07
1.70332e-07
1.67699e-07
1.67688e-07
1.68316e-07
1.72418e-07
1.71034e-07
1.74465e-07
1.74717e-07
1.75692e-07
1.71126e-07
1.75771e-07
1.77822e-07
1.77325e-07
1.7954e-07
1.79753e-07
1.80479e-07
1.80861e-07
1.79373e-07
1.76926e-07
1.77289e-07
1.7954e-07
1.83793e-07
1.75434e-07
1.75435e-07
1.75435e-07
1.75434e-07
1.75559e-07
1.74728e-07
1.79749e-07
1.75434e-07
1.75435e-07
1.75435e-07
1.75435e-07
1.75435e-07
1.75435e-07
1.68443e-07
1.72587e-07
1.77819e-07
1.80492e-07
1.75435e-07
1.75435e-07
1.75435e-07
1.75435e-07
1.75435e-07
1.75435e-07
1.65811e-07
1.72831e-07
1.7732e-07
1.80867e-07
1.75436e-07
1.75435e-07
1.75435e-07
1.75435e-07
1.75435e-07
1.75435e-07
1.65806e-07
1.73812e-07
1.7938e-07
1.75435e-07
1.75435e-07
1.75435e-07
1.75435e-07
1.75435e-07
1.75435e-07
1.66439e-07
1.69242e-07
1.76927e-07
1.75558e-07
1.75435e-07
1.75435e-07
1.75435e-07
1.75435e-07
1.61485e-07
1.70538e-07
1.73882e-07
1.77289e-07
1.74727e-07
1.68443e-07
1.65808e-07
1.65802e-07
1.66429e-07
1.70531e-07
1.69146e-07
1.72578e-07
1.7283e-07
1.73808e-07
1.69237e-07
1.73884e-07
1.75934e-07
1.75437e-07
1.77652e-07
1.77864e-07
1.78591e-07
1.78973e-07
1.77486e-07
1.75037e-07
1.75402e-07
1.77652e-07
1.81904e-07
1.73546e-07
1.73546e-07
1.73546e-07
1.73546e-07
1.73673e-07
1.7284e-07
1.77861e-07
1.73546e-07
1.73546e-07
1.73547e-07
1.73547e-07
1.73547e-07
1.73546e-07
1.66555e-07
1.70699e-07
1.75931e-07
1.78604e-07
1.73546e-07
1.73547e-07
1.73547e-07
1.73547e-07
1.73547e-07
1.73547e-07
1.63923e-07
1.70943e-07
1.75432e-07
1.78979e-07
1.73547e-07
1.73547e-07
1.73547e-07
1.73547e-07
1.73547e-07
1.73547e-07
1.63918e-07
1.71924e-07
1.77492e-07
1.73547e-07
1.73547e-07
1.73547e-07
1.73547e-07
1.73547e-07
1.73547e-07
1.64551e-07
1.67354e-07
1.75038e-07
1.7367e-07
1.73547e-07
1.73547e-07
1.73547e-07
1.73546e-07
1.59597e-07
1.6865e-07
1.71993e-07
1.75401e-07
1.72839e-07
1.66555e-07
1.63919e-07
1.63913e-07
1.6454e-07
1.68642e-07
1.67258e-07
1.7069e-07
1.70942e-07
1.7192e-07
1.6735e-07
1.71996e-07
1.74046e-07
1.73549e-07
1.75763e-07
1.75975e-07
1.76703e-07
1.77085e-07
1.75597e-07
1.73148e-07
1.73513e-07
1.75764e-07
1.80016e-07
1.71658e-07
1.71658e-07
1.71658e-07
1.71658e-07
1.71784e-07
1.70952e-07
1.75973e-07
1.71658e-07
1.71658e-07
1.71658e-07
1.71658e-07
1.71658e-07
1.71658e-07
1.64666e-07
1.68811e-07
1.74043e-07
1.76716e-07
1.71658e-07
1.71658e-07
1.71658e-07
1.71658e-07
1.71658e-07
1.71658e-07
1.62035e-07
1.69055e-07
1.73543e-07
1.77091e-07
1.71659e-07
1.71659e-07
1.71659e-07
1.71658e-07
1.71658e-07
1.71658e-07
1.6203e-07
1.70035e-07
1.75603e-07
1.71659e-07
1.71659e-07
1.71659e-07
1.71659e-07
1.71658e-07
1.71658e-07
1.62662e-07
1.65465e-07
1.7315e-07
1.71782e-07
1.71659e-07
1.71659e-07
1.71659e-07
1.71658e-07
1.57709e-07
1.66762e-07
1.70105e-07
1.73513e-07
1.7095e-07
1.64666e-07
1.62029e-07
1.62025e-07
1.62652e-07
1.66754e-07
1.6537e-07
1.68802e-07
1.69053e-07
1.70032e-07
1.65462e-07
1.70108e-07
1.72157e-07
1.7166e-07
1.73874e-07
1.74087e-07
1.74814e-07
1.75196e-07
1.73709e-07
1.7126e-07
1.71625e-07
1.73875e-07
1.78127e-07
1.69769e-07
1.6977e-07
1.6977e-07
1.6977e-07
1.69896e-07
1.69064e-07
1.74084e-07
1.69769e-07
1.6977e-07
1.6977e-07
1.6977e-07
1.6977e-07
1.6977e-07
1.62778e-07
1.66923e-07
1.72154e-07
1.74827e-07
1.6977e-07
1.6977e-07
1.6977e-07
1.6977e-07
1.6977e-07
1.6977e-07
1.60146e-07
1.67166e-07
1.71655e-07
1.75203e-07
1.6977e-07
1.6977e-07
1.6977e-07
1.6977e-07
1.6977e-07
1.6977e-07
1.60141e-07
1.68147e-07
1.73715e-07
1.6977e-07
1.6977e-07
1.6977e-07
1.6977e-07
1.6977e-07
1.6977e-07
1.60774e-07
1.63577e-07
1.71261e-07
1.69893e-07
1.6977e-07
1.6977e-07
1.6977e-07
1.6977e-07
1.5582e-07
1.64874e-07
1.68217e-07
1.71624e-07
1.69062e-07
1.62778e-07
1.60141e-07
1.60136e-07
1.60763e-07
1.64866e-07
1.63481e-07
1.66913e-07
1.67165e-07
1.68144e-07
1.63573e-07
1.6822e-07
1.70269e-07
1.69772e-07
1.71985e-07
1.72198e-07
1.72925e-07
1.73308e-07
1.71821e-07
1.6937e-07
1.69735e-07
1.71986e-07
1.76239e-07
1.67881e-07
1.67881e-07
1.67881e-07
1.67881e-07
1.68008e-07
1.67175e-07
1.72196e-07
1.67881e-07
1.67881e-07
1.67881e-07
1.67881e-07
1.67881e-07
1.67881e-07
1.6089e-07
1.65035e-07
1.70265e-07
1.72938e-07
1.67881e-07
1.67881e-07
1.67881e-07
1.67881e-07
1.67881e-07
1.67881e-07
1.58258e-07
1.65278e-07
1.69766e-07
1.73314e-07
1.67882e-07
1.67882e-07
1.67882e-07
1.67881e-07
1.67881e-07
1.67881e-07
1.58253e-07
1.66258e-07
1.71826e-07
1.67882e-07
1.67882e-07
1.67882e-07
1.67882e-07
1.67881e-07
1.67881e-07
1.58885e-07
1.61688e-07
1.69372e-07
1.68005e-07
1.67882e-07
1.67882e-07
1.67881e-07
1.67881e-07
1.53932e-07
1.62985e-07
1.66328e-07
1.69735e-07
1.67173e-07
1.60889e-07
1.58252e-07
1.58248e-07
1.58875e-07
1.62977e-07
1.61592e-07
1.65024e-07
1.65276e-07
1.66255e-07
1.61685e-07
1.66331e-07
1.6838e-07
1.67883e-07
1.70097e-07
1.7031e-07
1.71038e-07
1.7142e-07
1.69932e-07
1.67483e-07
1.67847e-07
1.70098e-07
1.74351e-07
1.65993e-07
1.65993e-07
1.65993e-07
1.65993e-07
1.6612e-07
1.65287e-07
1.70308e-07
1.65993e-07
1.65993e-07
1.65993e-07
1.65993e-07
1.65993e-07
1.65993e-07
1.59001e-07
1.63147e-07
1.68377e-07
1.7105e-07
1.65993e-07
1.65993e-07
1.65993e-07
1.65993e-07
1.65993e-07
1.65993e-07
1.5637e-07
1.6339e-07
1.67878e-07
1.71426e-07
1.65994e-07
1.65994e-07
1.65994e-07
1.65994e-07
1.65994e-07
1.65994e-07
1.56365e-07
1.6437e-07
1.69938e-07
1.65994e-07
1.65994e-07
1.65994e-07
1.65994e-07
1.65994e-07
1.65993e-07
1.56997e-07
1.598e-07
1.67485e-07
1.66117e-07
1.65994e-07
1.65994e-07
1.65994e-07
1.65993e-07
1.52044e-07
1.61097e-07
1.6444e-07
1.67847e-07
1.65285e-07
1.59001e-07
1.56364e-07
1.5636e-07
1.56987e-07
1.61089e-07
1.59704e-07
1.63137e-07
1.63388e-07
1.64367e-07
1.59797e-07
1.64443e-07
1.66493e-07
1.65996e-07
1.6821e-07
1.68423e-07
1.69151e-07
1.69533e-07
1.68045e-07
1.65595e-07
1.6596e-07
1.68211e-07
1.72463e-07
1.64106e-07
1.64106e-07
1.64106e-07
1.64106e-07
1.64233e-07
1.634e-07
1.6842e-07
1.64105e-07
1.64106e-07
1.64106e-07
1.64106e-07
1.64106e-07
1.64106e-07
1.57114e-07
1.6126e-07
1.6649e-07
1.69163e-07
1.64106e-07
1.64106e-07
1.64106e-07
1.64106e-07
1.64106e-07
1.64106e-07
1.54482e-07
1.61502e-07
1.65991e-07
1.69539e-07
1.64107e-07
1.64106e-07
1.64106e-07
1.64106e-07
1.64106e-07
1.64106e-07
1.54477e-07
1.62483e-07
1.68051e-07
1.64106e-07
1.64106e-07
1.64106e-07
1.64106e-07
1.64106e-07
1.64106e-07
1.5511e-07
1.57913e-07
1.65597e-07
1.64229e-07
1.64106e-07
1.64106e-07
1.64106e-07
1.64106e-07
1.50156e-07
1.5921e-07
1.62553e-07
1.6596e-07
1.63398e-07
1.57114e-07
1.54477e-07
1.54472e-07
1.55099e-07
1.59202e-07
1.57817e-07
1.61249e-07
1.61501e-07
1.6248e-07
1.5791e-07
1.62556e-07
1.64605e-07
1.64108e-07
1.66322e-07
1.66535e-07
1.67263e-07
1.67644e-07
1.66157e-07
1.63708e-07
1.64073e-07
1.66323e-07
1.70575e-07
1.62217e-07
1.62217e-07
1.62218e-07
1.62217e-07
1.62345e-07
1.61512e-07
1.66532e-07
1.62217e-07
1.62218e-07
1.62218e-07
1.62218e-07
1.62218e-07
1.62218e-07
1.55226e-07
1.59372e-07
1.64602e-07
1.67275e-07
1.62218e-07
1.62218e-07
1.62218e-07
1.62218e-07
1.62218e-07
1.62218e-07
1.52594e-07
1.59614e-07
1.64102e-07
1.6765e-07
1.62219e-07
1.62218e-07
1.62218e-07
1.62218e-07
1.62218e-07
1.62218e-07
1.52589e-07
1.60595e-07
1.66163e-07
1.62218e-07
1.62218e-07
1.62218e-07
1.62218e-07
1.62218e-07
1.62218e-07
1.53222e-07
1.56025e-07
1.63709e-07
1.62341e-07
1.62218e-07
1.62218e-07
1.62216e-07
1.62217e-07
1.48268e-07
1.57321e-07
1.60665e-07
1.64072e-07
1.61509e-07
1.55226e-07
1.52589e-07
1.52584e-07
1.53211e-07
1.57314e-07
1.55929e-07
1.59361e-07
1.59613e-07
1.60591e-07
1.56021e-07
1.60668e-07
1.62716e-07
1.62219e-07
1.64433e-07
1.64646e-07
1.65374e-07
1.65755e-07
1.64268e-07
1.61819e-07
1.62183e-07
1.64434e-07
1.68687e-07
1.60329e-07
1.60329e-07
1.60329e-07
1.60329e-07
1.60455e-07
1.59623e-07
1.64643e-07
1.60328e-07
1.60329e-07
1.60329e-07
1.60329e-07
1.60329e-07
1.60329e-07
1.53337e-07
1.57483e-07
1.62713e-07
1.65386e-07
1.60329e-07
1.60329e-07
1.60329e-07
1.60329e-07
1.60329e-07
1.60329e-07
1.50705e-07
1.57725e-07
1.62214e-07
1.65761e-07
1.6033e-07
1.60329e-07
1.60329e-07
1.60329e-07
1.60329e-07
1.60329e-07
1.507e-07
1.58706e-07
1.64274e-07
1.6033e-07
1.6033e-07
1.60329e-07
1.60329e-07
1.60329e-07
1.60329e-07
1.51333e-07
1.54136e-07
1.6182e-07
1.60452e-07
1.60329e-07
1.60329e-07
1.60329e-07
1.60329e-07
1.46379e-07
1.55433e-07
1.58776e-07
1.62183e-07
1.59621e-07
1.53335e-07
1.50699e-07
1.50694e-07
1.51322e-07
1.55425e-07
1.5404e-07
1.57472e-07
1.57724e-07
1.58702e-07
1.54132e-07
1.58779e-07
1.60828e-07
1.60331e-07
1.62545e-07
1.62757e-07
1.63486e-07
1.63867e-07
1.62379e-07
1.59931e-07
1.60295e-07
1.62546e-07
1.66799e-07
1.58441e-07
1.58441e-07
1.58441e-07
1.58441e-07
1.58564e-07
1.57734e-07
1.62755e-07
1.5844e-07
1.58441e-07
1.58441e-07
1.58441e-07
1.58441e-07
1.58441e-07
1.51449e-07
1.55595e-07
1.60825e-07
1.63498e-07
1.58441e-07
1.58441e-07
1.58441e-07
1.58441e-07
1.58441e-07
1.58441e-07
1.48817e-07
1.55837e-07
1.60325e-07
1.63872e-07
1.58442e-07
1.58441e-07
1.58441e-07
1.58441e-07
1.58441e-07
1.58441e-07
1.48812e-07
1.56818e-07
1.62386e-07
1.58441e-07
1.58441e-07
1.58441e-07
1.58441e-07
1.58441e-07
1.58441e-07
1.49445e-07
1.52248e-07
1.59932e-07
1.58564e-07
1.58441e-07
1.58441e-07
1.58441e-07
1.58441e-07
1.44491e-07
1.53544e-07
1.56888e-07
1.60295e-07
1.57733e-07
1.51447e-07
1.48811e-07
1.48806e-07
1.49434e-07
1.53537e-07
1.52152e-07
1.55584e-07
1.55836e-07
1.56814e-07
1.52244e-07
1.56891e-07
1.5894e-07
1.58443e-07
1.60658e-07
1.6087e-07
1.61598e-07
1.61979e-07
1.60491e-07
1.58043e-07
1.58407e-07
1.60658e-07
1.6491e-07
1.56553e-07
1.56553e-07
1.56553e-07
1.56553e-07
1.56676e-07
1.55846e-07
1.60867e-07
1.56552e-07
1.56553e-07
1.56553e-07
1.56553e-07
1.56553e-07
1.56553e-07
1.49561e-07
1.53707e-07
1.58937e-07
1.6161e-07
1.56553e-07
1.56553e-07
1.56553e-07
1.56553e-07
1.56553e-07
1.56553e-07
1.46929e-07
1.53949e-07
1.58437e-07
1.61984e-07
1.56553e-07
1.56553e-07
1.56553e-07
1.56553e-07
1.56553e-07
1.56553e-07
1.46924e-07
1.5493e-07
1.60498e-07
1.56553e-07
1.56553e-07
1.56553e-07
1.56553e-07
1.56553e-07
1.56553e-07
1.47557e-07
1.5036e-07
1.58044e-07
1.56676e-07
1.56553e-07
1.56553e-07
1.56553e-07
1.56553e-07
1.42603e-07
1.51657e-07
1.55e-07
1.58407e-07
1.55845e-07
1.49559e-07
1.46925e-07
1.46918e-07
1.47546e-07
1.51649e-07
1.50264e-07
1.53697e-07
1.53949e-07
1.54927e-07
1.50357e-07
1.55003e-07
1.57052e-07
1.56555e-07
1.58769e-07
1.58981e-07
1.59709e-07
1.6009e-07
1.58603e-07
1.56154e-07
1.56519e-07
1.58769e-07
1.63022e-07
1.54664e-07
1.54664e-07
1.54664e-07
1.54664e-07
1.54788e-07
1.53958e-07
1.58979e-07
1.54664e-07
1.54664e-07
1.54664e-07
1.54664e-07
1.54664e-07
1.54664e-07
1.47672e-07
1.51818e-07
1.57049e-07
1.59721e-07
1.54664e-07
1.54664e-07
1.54665e-07
1.54665e-07
1.54665e-07
1.54665e-07
1.45041e-07
1.52061e-07
1.56549e-07
1.60096e-07
1.54665e-07
1.54665e-07
1.54665e-07
1.54665e-07
1.54665e-07
1.54665e-07
1.45036e-07
1.53041e-07
1.58609e-07
1.54665e-07
1.54665e-07
1.54665e-07
1.54665e-07
1.54665e-07
1.54664e-07
1.45669e-07
1.48472e-07
1.56156e-07
1.54788e-07
1.54665e-07
1.54665e-07
1.54665e-07
1.54664e-07
1.40715e-07
1.49768e-07
1.53111e-07
1.56518e-07
1.53956e-07
1.47671e-07
1.45036e-07
1.4503e-07
1.45657e-07
1.4976e-07
1.48375e-07
1.51808e-07
1.5206e-07
1.53039e-07
1.48468e-07
1.53114e-07
1.55164e-07
1.54667e-07
1.5688e-07
1.57092e-07
1.57821e-07
1.58202e-07
1.56715e-07
1.54266e-07
1.54631e-07
1.56881e-07
1.61133e-07
1.52776e-07
1.52776e-07
1.52776e-07
1.52776e-07
1.529e-07
1.5207e-07
1.57091e-07
1.52776e-07
1.52776e-07
1.52776e-07
1.52776e-07
1.52776e-07
1.52776e-07
1.45785e-07
1.4993e-07
1.55161e-07
1.57833e-07
1.52776e-07
1.52776e-07
1.52776e-07
1.52776e-07
1.52776e-07
1.52776e-07
1.43153e-07
1.50173e-07
1.54661e-07
1.58208e-07
1.52777e-07
1.52777e-07
1.52777e-07
1.52776e-07
1.52777e-07
1.52777e-07
1.43148e-07
1.51153e-07
1.56721e-07
1.52777e-07
1.52777e-07
1.52777e-07
1.52777e-07
1.52777e-07
1.52776e-07
1.43781e-07
1.46584e-07
1.54268e-07
1.529e-07
1.52777e-07
1.52777e-07
1.52777e-07
1.52776e-07
1.38827e-07