/*--------------------------------*- C++ -*----------------------------------*\
| =========                 |                                                 |
| \\      /  F ield         | OpenFOAM: The Open Source CFD Toolbox           |
|  \\    /   O peration     | Version:  v2012                                 |
|   \\  /    A nd           | Website:  www.openfoam.com                      |
|    \\/     M anipulation  |                                                 |
\*---------------------------------------------------------------------------*/
FoamFile
{
    version     2.0;
    format      ascii;
    class       volScalarField;
    location    "0";
    object      p;
}
// * * * * * * * * * * * * * * * * * * * * * * * * * * * * * * * * * * * * * //

dimensions      [0 2 -2 0 0 0 0];


internalField   nonuniform List<scalar> 
189320
(
7.44728e-07
7.44818e-07
7.44687e-07
7.44307e-07
7.44253e-07
7.44221e-07
7.44275e-07
7.44727e-07
7.44676e-07
7.44687e-07
7.4423e-07
7.44128e-07
7.44053e-07
7.44035e-07
7.44085e-07
7.44173e-07
7.44313e-07
7.44307e-07
7.44127e-07
7.43976e-07
7.43872e-07
7.43849e-07
7.43915e-07
7.44048e-07
7.44205e-07
7.44813e-07
7.44728e-07
7.44252e-07
7.44053e-07
7.43872e-07
7.43751e-07
7.43725e-07
7.43801e-07
7.43958e-07
7.44145e-07
7.44649e-07
7.44817e-07
7.4422e-07
7.44035e-07
7.43849e-07
7.43725e-07
7.43698e-07
7.43776e-07
7.43937e-07
7.44126e-07
7.44319e-07
7.44274e-07
7.44085e-07
7.43915e-07
7.43801e-07
7.43776e-07
7.43848e-07
7.43996e-07
7.4417e-07
7.44693e-07
7.44727e-07
7.44173e-07
7.44048e-07
7.43958e-07
7.43937e-07
7.43996e-07
7.44104e-07
7.44259e-07
7.44831e-07
7.44676e-07
7.44313e-07
7.44205e-07
7.44145e-07
7.44127e-07
7.44171e-07
7.44259e-07
7.44644e-07
7.44813e-07
7.44649e-07
7.44319e-07
7.44693e-07
7.44831e-07
7.36414e-07
7.36341e-07
7.36304e-07
7.35648e-07
7.35596e-07
7.35592e-07
7.35619e-07
7.36168e-07
7.36303e-07
7.36304e-07
7.35508e-07
7.34356e-07
7.34348e-07
7.34348e-07
7.34356e-07
7.3532e-07
7.35643e-07
7.35648e-07
7.34356e-07
7.3434e-07
7.34333e-07
7.34333e-07
7.3434e-07
7.34356e-07
7.35462e-07
7.36256e-07
7.36414e-07
7.35596e-07
7.34348e-07
7.34333e-07
7.34328e-07
7.34328e-07
7.34333e-07
7.34347e-07
7.35368e-07
7.36151e-07
7.3634e-07
7.35592e-07
7.34348e-07
7.34333e-07
7.34328e-07
7.34328e-07
7.34333e-07
7.34347e-07
7.35347e-07
7.35746e-07
7.35619e-07
7.34356e-07
7.3434e-07
7.34333e-07
7.34333e-07
7.3434e-07
7.34356e-07
7.35403e-07
7.36196e-07
7.36168e-07
7.3532e-07
7.34356e-07
7.34347e-07
7.34347e-07
7.34356e-07
7.35128e-07
7.35559e-07
7.36322e-07
7.36303e-07
7.35643e-07
7.35462e-07
7.35368e-07
7.35347e-07
7.35403e-07
7.35559e-07
7.36036e-07
7.36256e-07
7.36151e-07
7.35746e-07
7.36196e-07
7.36322e-07
7.28864e-07
7.28761e-07
7.2877e-07
7.27947e-07
7.27901e-07
7.27907e-07
7.27919e-07
7.28609e-07
7.28764e-07
7.2877e-07
7.27838e-07
7.26388e-07
7.2639e-07
7.2639e-07
7.26388e-07
7.27586e-07
7.27966e-07
7.27947e-07
7.26388e-07
7.26391e-07
7.26392e-07
7.26392e-07
7.26391e-07
7.26388e-07
7.27728e-07
7.28695e-07
7.28864e-07
7.27901e-07
7.2639e-07
7.26393e-07
7.26393e-07
7.26393e-07
7.26392e-07
7.2639e-07
7.27628e-07
7.28573e-07
7.28761e-07
7.27907e-07
7.2639e-07
7.26393e-07
7.26393e-07
7.26393e-07
7.26392e-07
7.2639e-07
7.27611e-07
7.28054e-07
7.27919e-07
7.26388e-07
7.26391e-07
7.26392e-07
7.26392e-07
7.26391e-07
7.26388e-07
7.27659e-07
7.28627e-07
7.28609e-07
7.27586e-07
7.26388e-07
7.2639e-07
7.2639e-07
7.26388e-07
7.27325e-07
7.27862e-07
7.28784e-07
7.28764e-07
7.27966e-07
7.27728e-07
7.27628e-07
7.27611e-07
7.27659e-07
7.27862e-07
7.28438e-07
7.28695e-07
7.28573e-07
7.28054e-07
7.28627e-07
7.28784e-07
7.20993e-07
7.2089e-07
7.20896e-07
7.20067e-07
7.20022e-07
7.20029e-07
7.20039e-07
7.20735e-07
7.2089e-07
7.20896e-07
7.19958e-07
7.18497e-07
7.18496e-07
7.18496e-07
7.18497e-07
7.19704e-07
7.20086e-07
7.20067e-07
7.18497e-07
7.18495e-07
7.18494e-07
7.18494e-07
7.18495e-07
7.18497e-07
7.19848e-07
7.20823e-07
7.20993e-07
7.20022e-07
7.18496e-07
7.18494e-07
7.18494e-07
7.18494e-07
7.18494e-07
7.18496e-07
7.19749e-07
7.20702e-07
7.2089e-07
7.20029e-07
7.18496e-07
7.18494e-07
7.18494e-07
7.18494e-07
7.18494e-07
7.18496e-07
7.19733e-07
7.20178e-07
7.20039e-07
7.18497e-07
7.18495e-07
7.18494e-07
7.18494e-07
7.18495e-07
7.18497e-07
7.19779e-07
7.20755e-07
7.20735e-07
7.19704e-07
7.18497e-07
7.18496e-07
7.18496e-07
7.18497e-07
7.1944e-07
7.1998e-07
7.20912e-07
7.2089e-07
7.20086e-07
7.19848e-07
7.19749e-07
7.19732e-07
7.19779e-07
7.1998e-07
7.20561e-07
7.20822e-07
7.20702e-07
7.20178e-07
7.20755e-07
7.20912e-07
7.13132e-07
7.13028e-07
7.13034e-07
7.12203e-07
7.12158e-07
7.12166e-07
7.12175e-07
7.12872e-07
7.13027e-07
7.13034e-07
7.12094e-07
7.10624e-07
7.10622e-07
7.10622e-07
7.10624e-07
7.11839e-07
7.12222e-07
7.12203e-07
7.10624e-07
7.10622e-07
7.10621e-07
7.10621e-07
7.10622e-07
7.10624e-07
7.11984e-07
7.1296e-07
7.13132e-07
7.12158e-07
7.10622e-07
7.10621e-07
7.1062e-07
7.1062e-07
7.10621e-07
7.10622e-07
7.11886e-07
7.1284e-07
7.13028e-07
7.12166e-07
7.10622e-07
7.10621e-07
7.1062e-07
7.1062e-07
7.10621e-07
7.10622e-07
7.1187e-07
7.12315e-07
7.12175e-07
7.10624e-07
7.10622e-07
7.10621e-07
7.10621e-07
7.10622e-07
7.10624e-07
7.11915e-07
7.12894e-07
7.12872e-07
7.11839e-07
7.10624e-07
7.10622e-07
7.10622e-07
7.10624e-07
7.11574e-07
7.12116e-07
7.13049e-07
7.13027e-07
7.12222e-07
7.11984e-07
7.11886e-07
7.1187e-07
7.11915e-07
7.12116e-07
7.12698e-07
7.1296e-07
7.1284e-07
7.12315e-07
7.12893e-07
7.13049e-07
7.05276e-07
7.05173e-07
7.05178e-07
7.04347e-07
7.04303e-07
7.04312e-07
7.0432e-07
7.05017e-07
7.05172e-07
7.05178e-07
7.04239e-07
7.02767e-07
7.02765e-07
7.02765e-07
7.02767e-07
7.03983e-07
7.04366e-07
7.04347e-07
7.02766e-07
7.02765e-07
7.02764e-07
7.02764e-07
7.02765e-07
7.02766e-07
7.04129e-07
7.05105e-07
7.05276e-07
7.04303e-07
7.02765e-07
7.02764e-07
7.02763e-07
7.02763e-07
7.02764e-07
7.02765e-07
7.04031e-07
7.04985e-07
7.05173e-07
7.04312e-07
7.02765e-07
7.02764e-07
7.02763e-07
7.02763e-07
7.02764e-07
7.02765e-07
7.04015e-07
7.0446e-07
7.0432e-07
7.02767e-07
7.02765e-07
7.02764e-07
7.02764e-07
7.02765e-07
7.02767e-07
7.0406e-07
7.05038e-07
7.05017e-07
7.03983e-07
7.02767e-07
7.02765e-07
7.02765e-07
7.02767e-07
7.03718e-07
7.0426e-07
7.05194e-07
7.05172e-07
7.04366e-07
7.04129e-07
7.04031e-07
7.04015e-07
7.0406e-07
7.0426e-07
7.04842e-07
7.05105e-07
7.04985e-07
7.0446e-07
7.05039e-07
7.05194e-07
6.97426e-07
6.97323e-07
6.97327e-07
6.96497e-07
6.96453e-07
6.96461e-07
6.96469e-07
6.97166e-07
6.97321e-07
6.97327e-07
6.96388e-07
6.94915e-07
6.94914e-07
6.94914e-07
6.94915e-07
6.96133e-07
6.96516e-07
6.96497e-07
6.94915e-07
6.94914e-07
6.94913e-07
6.94913e-07
6.94914e-07
6.94915e-07
6.96278e-07
6.97254e-07
6.97426e-07
6.96453e-07
6.94914e-07
6.94913e-07
6.94913e-07
6.94913e-07
6.94913e-07
6.94913e-07
6.96181e-07
6.97135e-07
6.97322e-07
6.96461e-07
6.94914e-07
6.94913e-07
6.94913e-07
6.94913e-07
6.94913e-07
6.94913e-07
6.96165e-07
6.96609e-07
6.96469e-07
6.94915e-07
6.94914e-07
6.94913e-07
6.94913e-07
6.94914e-07
6.94915e-07
6.9621e-07
6.97188e-07
6.97166e-07
6.96133e-07
6.94915e-07
6.94913e-07
6.94913e-07
6.94915e-07
6.95868e-07
6.9641e-07
6.97343e-07
6.9732e-07
6.96515e-07
6.96278e-07
6.96181e-07
6.96165e-07
6.9621e-07
6.9641e-07
6.96991e-07
6.97254e-07
6.97135e-07
6.96609e-07
6.97188e-07
6.97343e-07
6.89577e-07
6.89474e-07
6.89479e-07
6.88648e-07
6.88604e-07
6.88613e-07
6.88621e-07
6.89318e-07
6.89472e-07
6.89479e-07
6.8854e-07
6.87067e-07
6.87065e-07
6.87065e-07
6.87067e-07
6.88285e-07
6.88667e-07
6.88648e-07
6.87067e-07
6.87066e-07
6.87065e-07
6.87065e-07
6.87066e-07
6.87067e-07
6.8843e-07
6.89406e-07
6.89577e-07
6.88604e-07
6.87065e-07
6.87065e-07
6.87065e-07
6.87065e-07
6.87065e-07
6.87065e-07
6.88333e-07
6.89287e-07
6.89474e-07
6.88613e-07
6.87065e-07
6.87065e-07
6.87065e-07
6.87065e-07
6.87065e-07
6.87065e-07
6.88317e-07
6.88761e-07
6.88621e-07
6.87067e-07
6.87066e-07
6.87065e-07
6.87065e-07
6.87066e-07
6.87067e-07
6.88362e-07
6.8934e-07
6.89318e-07
6.88285e-07
6.87067e-07
6.87065e-07
6.87065e-07
6.87067e-07
6.88019e-07
6.88561e-07
6.89495e-07
6.89472e-07
6.88667e-07
6.8843e-07
6.88333e-07
6.88317e-07
6.88361e-07
6.88561e-07
6.89143e-07
6.89406e-07
6.89286e-07
6.88761e-07
6.89339e-07
6.89495e-07
6.8173e-07
6.81627e-07
6.81631e-07
6.80801e-07
6.80757e-07
6.80766e-07
6.80774e-07
6.8147e-07
6.81625e-07
6.81631e-07
6.80692e-07
6.79219e-07
6.79217e-07
6.79217e-07
6.79219e-07
6.80437e-07
6.8082e-07
6.80801e-07
6.79219e-07
6.79218e-07
6.79218e-07
6.79218e-07
6.79218e-07
6.79219e-07
6.80583e-07
6.81558e-07
6.8173e-07
6.80757e-07
6.79217e-07
6.79218e-07
6.79218e-07
6.79218e-07
6.79218e-07
6.79217e-07
6.80485e-07
6.81439e-07
6.81626e-07
6.80766e-07
6.79217e-07
6.79218e-07
6.79218e-07
6.79218e-07
6.79218e-07
6.79217e-07
6.8047e-07
6.80913e-07
6.80774e-07
6.79219e-07
6.79218e-07
6.79218e-07
6.79218e-07
6.79218e-07
6.79219e-07
6.80514e-07
6.81492e-07
6.8147e-07
6.80437e-07
6.79219e-07
6.79217e-07
6.79217e-07
6.79219e-07
6.80172e-07
6.80714e-07
6.81647e-07
6.81624e-07
6.80819e-07
6.80583e-07
6.80485e-07
6.8047e-07
6.80514e-07
6.80714e-07
6.81295e-07
6.81558e-07
6.81439e-07
6.80913e-07
6.81492e-07
6.81647e-07
6.73883e-07
6.7378e-07
6.73784e-07
6.72954e-07
6.7291e-07
6.72919e-07
6.72927e-07
6.73623e-07
6.73778e-07
6.73784e-07
6.72845e-07
6.71372e-07
6.7137e-07
6.7137e-07
6.71372e-07
6.7259e-07
6.72973e-07
6.72954e-07
6.71372e-07
6.71371e-07
6.71371e-07
6.71371e-07
6.71371e-07
6.71372e-07
6.72736e-07
6.73711e-07
6.73883e-07
6.7291e-07
6.7137e-07
6.71371e-07
6.71371e-07
6.71371e-07
6.71371e-07
6.7137e-07
6.72638e-07
6.73592e-07
6.7378e-07
6.72919e-07
6.7137e-07
6.71371e-07
6.71371e-07
6.71371e-07
6.71371e-07
6.7137e-07
6.72623e-07
6.73066e-07
6.72927e-07
6.71372e-07
6.71371e-07
6.71371e-07
6.71371e-07
6.71371e-07
6.71372e-07
6.72667e-07
6.73645e-07
6.73623e-07
6.7259e-07
6.71372e-07
6.7137e-07
6.7137e-07
6.71372e-07
6.72325e-07
6.72867e-07
6.738e-07
6.73778e-07
6.72973e-07
6.72736e-07
6.72638e-07
6.72623e-07
6.72667e-07
6.72867e-07
6.73448e-07
6.73711e-07
6.73592e-07
6.73066e-07
6.73645e-07
6.738e-07
6.66036e-07
6.65932e-07
6.65937e-07
6.65107e-07
6.65063e-07
6.65072e-07
6.6508e-07
6.65776e-07
6.6593e-07
6.65937e-07
6.64998e-07
6.63525e-07
6.63523e-07
6.63523e-07
6.63525e-07
6.64743e-07
6.65126e-07
6.65107e-07
6.63525e-07
6.63524e-07
6.63524e-07
6.63524e-07
6.63524e-07
6.63525e-07
6.64889e-07
6.65864e-07
6.66036e-07
6.65063e-07
6.63523e-07
6.63524e-07
6.63524e-07
6.63524e-07
6.63524e-07
6.63523e-07
6.64791e-07
6.65745e-07
6.65932e-07
6.65072e-07
6.63523e-07
6.63524e-07
6.63524e-07
6.63524e-07
6.63524e-07
6.63523e-07
6.64776e-07
6.65219e-07
6.6508e-07
6.63525e-07
6.63524e-07
6.63524e-07
6.63524e-07
6.63524e-07
6.63525e-07
6.6482e-07
6.65798e-07
6.65776e-07
6.64743e-07
6.63525e-07
6.63523e-07
6.63523e-07
6.63525e-07
6.64478e-07
6.6502e-07
6.65953e-07
6.6593e-07
6.65125e-07
6.64889e-07
6.64791e-07
6.64776e-07
6.6482e-07
6.6502e-07
6.65601e-07
6.65864e-07
6.65745e-07
6.65219e-07
6.65798e-07
6.65953e-07
6.58189e-07
6.58086e-07
6.5809e-07
6.5726e-07
6.57216e-07
6.57225e-07
6.57233e-07
6.57929e-07
6.58084e-07
6.5809e-07
6.57151e-07
6.55678e-07
6.55676e-07
6.55676e-07
6.55678e-07
6.56896e-07
6.57279e-07
6.5726e-07
6.55678e-07
6.55677e-07
6.55677e-07
6.55677e-07
6.55677e-07
6.55678e-07
6.57042e-07
6.58017e-07
6.58189e-07
6.57216e-07
6.55676e-07
6.55677e-07
6.55677e-07
6.55677e-07
6.55677e-07
6.55676e-07
6.56944e-07
6.57898e-07
6.58086e-07
6.57225e-07
6.55676e-07
6.55677e-07
6.55677e-07
6.55677e-07
6.55677e-07
6.55676e-07
6.56929e-07
6.57372e-07
6.57233e-07
6.55678e-07
6.55677e-07
6.55677e-07
6.55677e-07
6.55677e-07
6.55678e-07
6.56973e-07
6.57951e-07
6.57929e-07
6.56896e-07
6.55678e-07
6.55676e-07
6.55676e-07
6.55678e-07
6.56631e-07
6.57173e-07
6.58106e-07
6.58084e-07
6.57279e-07
6.57042e-07
6.56944e-07
6.56929e-07
6.56973e-07
6.57173e-07
6.57754e-07
6.58017e-07
6.57898e-07
6.57372e-07
6.57951e-07
6.58106e-07
6.50341e-07
6.50238e-07
6.50243e-07
6.49413e-07
6.49369e-07
6.49377e-07
6.49385e-07
6.50082e-07
6.50236e-07
6.50243e-07
6.49304e-07
6.47831e-07
6.47829e-07
6.47829e-07
6.47831e-07
6.49049e-07
6.49431e-07
6.49413e-07
6.47831e-07
6.4783e-07
6.47829e-07
6.47829e-07
6.4783e-07
6.47831e-07
6.49194e-07
6.5017e-07
6.50341e-07
6.49369e-07
6.47829e-07
6.47829e-07
6.47829e-07
6.47829e-07
6.47829e-07
6.47829e-07
6.49097e-07
6.50051e-07
6.50238e-07
6.49377e-07
6.47829e-07
6.47829e-07
6.47829e-07
6.47829e-07
6.47829e-07
6.47829e-07
6.49081e-07
6.49525e-07
6.49385e-07
6.47831e-07
6.4783e-07
6.47829e-07
6.47829e-07
6.4783e-07
6.47831e-07
6.49126e-07
6.50104e-07
6.50081e-07
6.49049e-07
6.47831e-07
6.47829e-07
6.47829e-07
6.47831e-07
6.48784e-07
6.49326e-07
6.50259e-07
6.50236e-07
6.49431e-07
6.49194e-07
6.49097e-07
6.49081e-07
6.49126e-07
6.49326e-07
6.49907e-07
6.5017e-07
6.50051e-07
6.49525e-07
6.50104e-07
6.50259e-07
6.42494e-07
6.42391e-07
6.42396e-07
6.41565e-07
6.41522e-07
6.4153e-07
6.41538e-07
6.42235e-07
6.42389e-07
6.42396e-07
6.41457e-07
6.39983e-07
6.39982e-07
6.39982e-07
6.39983e-07
6.41202e-07
6.41584e-07
6.41565e-07
6.39983e-07
6.39983e-07
6.39982e-07
6.39982e-07
6.39983e-07
6.39983e-07
6.41347e-07
6.42323e-07
6.42494e-07
6.41522e-07
6.39982e-07
6.39982e-07
6.39982e-07
6.39982e-07
6.39982e-07
6.39982e-07
6.4125e-07
6.42204e-07
6.42391e-07
6.4153e-07
6.39982e-07
6.39982e-07
6.39982e-07
6.39982e-07
6.39982e-07
6.39982e-07
6.41234e-07
6.41678e-07
6.41538e-07
6.39983e-07
6.39983e-07
6.39982e-07
6.39982e-07
6.39983e-07
6.39983e-07
6.41279e-07
6.42257e-07
6.42235e-07
6.41202e-07
6.39983e-07
6.39982e-07
6.39982e-07
6.39983e-07
6.40936e-07
6.41478e-07
6.42412e-07
6.42389e-07
6.41584e-07
6.41347e-07
6.4125e-07
6.41234e-07
6.41279e-07
6.41478e-07
6.4206e-07
6.42323e-07
6.42204e-07
6.41678e-07
6.42257e-07
6.42412e-07
6.34647e-07
6.34544e-07
6.34548e-07
6.33718e-07
6.33674e-07
6.33683e-07
6.33691e-07
6.34387e-07
6.34542e-07
6.34548e-07
6.33609e-07
6.32136e-07
6.32134e-07
6.32134e-07
6.32136e-07
6.33354e-07
6.33737e-07
6.33718e-07
6.32136e-07
6.32136e-07
6.32135e-07
6.32135e-07
6.32136e-07
6.32136e-07
6.335e-07
6.34475e-07
6.34647e-07
6.33674e-07
6.32134e-07
6.32135e-07
6.32135e-07
6.32135e-07
6.32135e-07
6.32134e-07
6.33402e-07
6.34356e-07
6.34544e-07
6.33683e-07
6.32134e-07
6.32135e-07
6.32135e-07
6.32135e-07
6.32135e-07
6.32134e-07
6.33387e-07
6.33831e-07
6.33691e-07
6.32136e-07
6.32136e-07
6.32135e-07
6.32135e-07
6.32136e-07
6.32136e-07
6.33431e-07
6.34409e-07
6.34387e-07
6.33354e-07
6.32136e-07
6.32134e-07
6.32134e-07
6.32136e-07
6.33089e-07
6.33631e-07
6.34564e-07
6.34542e-07
6.33737e-07
6.335e-07
6.33402e-07
6.33387e-07
6.33431e-07
6.33631e-07
6.34212e-07
6.34475e-07
6.34356e-07
6.33831e-07
6.34409e-07
6.34564e-07
6.268e-07
6.26697e-07
6.26701e-07
6.25871e-07
6.25827e-07
6.25836e-07
6.25844e-07
6.2654e-07
6.26695e-07
6.26701e-07
6.25762e-07
6.24289e-07
6.24287e-07
6.24287e-07
6.24289e-07
6.25507e-07
6.2589e-07
6.25871e-07
6.24289e-07
6.24288e-07
6.24288e-07
6.24288e-07
6.24288e-07
6.24289e-07
6.25653e-07
6.26628e-07
6.268e-07
6.25827e-07
6.24287e-07
6.24288e-07
6.24288e-07
6.24288e-07
6.24288e-07
6.24287e-07
6.25555e-07
6.26509e-07
6.26697e-07
6.25836e-07
6.24287e-07
6.24288e-07
6.24288e-07
6.24288e-07
6.24288e-07
6.24287e-07
6.2554e-07
6.25983e-07
6.25844e-07
6.24289e-07
6.24288e-07
6.24288e-07
6.24288e-07
6.24288e-07
6.24289e-07
6.25584e-07
6.26562e-07
6.2654e-07
6.25507e-07
6.24289e-07
6.24287e-07
6.24287e-07
6.24289e-07
6.25242e-07
6.25784e-07
6.26717e-07
6.26695e-07
6.2589e-07
6.25653e-07
6.25555e-07
6.2554e-07
6.25584e-07
6.25784e-07
6.26365e-07
6.26628e-07
6.26509e-07
6.25983e-07
6.26562e-07
6.26717e-07
6.18952e-07
6.18849e-07
6.18854e-07
6.18024e-07
6.1798e-07
6.17988e-07
6.17996e-07
6.18693e-07
6.18847e-07
6.18854e-07
6.17915e-07
6.16441e-07
6.1644e-07
6.1644e-07
6.16441e-07
6.1766e-07
6.18042e-07
6.18024e-07
6.16441e-07
6.16441e-07
6.1644e-07
6.1644e-07
6.16441e-07
6.16441e-07
6.17805e-07
6.18781e-07
6.18952e-07
6.1798e-07
6.1644e-07
6.1644e-07
6.1644e-07
6.1644e-07
6.1644e-07
6.1644e-07
6.17708e-07
6.18662e-07
6.18849e-07
6.17988e-07
6.1644e-07
6.1644e-07
6.1644e-07
6.1644e-07
6.1644e-07
6.1644e-07
6.17692e-07
6.18136e-07
6.17996e-07
6.16441e-07
6.16441e-07
6.1644e-07
6.1644e-07
6.16441e-07
6.16441e-07
6.17737e-07
6.18715e-07
6.18692e-07
6.1766e-07
6.16441e-07
6.1644e-07
6.1644e-07
6.16441e-07
6.17394e-07
6.17936e-07
6.1887e-07
6.18847e-07
6.18042e-07
6.17805e-07
6.17708e-07
6.17692e-07
6.17737e-07
6.17936e-07
6.18518e-07
6.18781e-07
6.18662e-07
6.18136e-07
6.18715e-07
6.1887e-07
6.11105e-07
6.11002e-07
6.11006e-07
6.10176e-07
6.10132e-07
6.10141e-07
6.10149e-07
6.10845e-07
6.11e-07
6.11006e-07
6.10067e-07
6.08594e-07
6.08592e-07
6.08592e-07
6.08594e-07
6.09812e-07
6.10195e-07
6.10176e-07
6.08594e-07
6.08593e-07
6.08593e-07
6.08593e-07
6.08593e-07
6.08594e-07
6.09958e-07
6.10933e-07
6.11105e-07
6.10132e-07
6.08592e-07
6.08593e-07
6.08593e-07
6.08593e-07
6.08593e-07
6.08592e-07
6.09861e-07
6.10814e-07
6.11002e-07
6.10141e-07
6.08592e-07
6.08593e-07
6.08593e-07
6.08593e-07
6.08593e-07
6.08592e-07
6.09845e-07
6.10289e-07
6.10149e-07
6.08594e-07
6.08594e-07
6.08593e-07
6.08593e-07
6.08594e-07
6.08594e-07
6.09889e-07
6.10867e-07
6.10845e-07
6.09812e-07
6.08594e-07
6.08592e-07
6.08592e-07
6.08594e-07
6.09547e-07
6.10089e-07
6.11022e-07
6.11e-07
6.10195e-07
6.09958e-07
6.09861e-07
6.09845e-07
6.09889e-07
6.10089e-07
6.1067e-07
6.10934e-07
6.10814e-07
6.10289e-07
6.10867e-07
6.11022e-07
6.03258e-07
6.03155e-07
6.03159e-07
6.02329e-07
6.02285e-07
6.02293e-07
6.02301e-07
6.02998e-07
6.03152e-07
6.03159e-07
6.0222e-07
6.00747e-07
6.00745e-07
6.00745e-07
6.00747e-07
6.01965e-07
6.02347e-07
6.02329e-07
6.00747e-07
6.00746e-07
6.00746e-07
6.00746e-07
6.00746e-07
6.00747e-07
6.0211e-07
6.03086e-07
6.03258e-07
6.02285e-07
6.00745e-07
6.00746e-07
6.00746e-07
6.00746e-07
6.00746e-07
6.00745e-07
6.02013e-07
6.02967e-07
6.03155e-07
6.02293e-07
6.00745e-07
6.00746e-07
6.00746e-07
6.00746e-07
6.00746e-07
6.00745e-07
6.01997e-07
6.02441e-07
6.02301e-07
6.00747e-07
6.00746e-07
6.00746e-07
6.00746e-07
6.00746e-07
6.00747e-07
6.02042e-07
6.0302e-07
6.02998e-07
6.01965e-07
6.00747e-07
6.00745e-07
6.00745e-07
6.00747e-07
6.017e-07
6.02242e-07
6.03175e-07
6.03152e-07
6.02347e-07
6.0211e-07
6.02013e-07
6.01997e-07
6.02042e-07
6.02242e-07
6.02823e-07
6.03086e-07
6.02967e-07
6.02441e-07
6.0302e-07
6.03175e-07
5.9541e-07
5.95307e-07
5.95312e-07
5.94481e-07
5.94437e-07
5.94446e-07
5.94454e-07
5.9515e-07
5.95305e-07
5.95312e-07
5.94373e-07
5.92899e-07
5.92898e-07
5.92898e-07
5.92899e-07
5.94117e-07
5.945e-07
5.94481e-07
5.92899e-07
5.92899e-07
5.92898e-07
5.92898e-07
5.92899e-07
5.92899e-07
5.94263e-07
5.95239e-07
5.9541e-07
5.94437e-07
5.92898e-07
5.92898e-07
5.92898e-07
5.92898e-07
5.92898e-07
5.92898e-07
5.94166e-07
5.9512e-07
5.95307e-07
5.94446e-07
5.92898e-07
5.92898e-07
5.92898e-07
5.92898e-07
5.92898e-07
5.92898e-07
5.9415e-07
5.94594e-07
5.94454e-07
5.92899e-07
5.92899e-07
5.92898e-07
5.92898e-07
5.92899e-07
5.92899e-07
5.94194e-07
5.95173e-07
5.95151e-07
5.94117e-07
5.92899e-07
5.92898e-07
5.92898e-07
5.92899e-07
5.93852e-07
5.94394e-07
5.95328e-07
5.95305e-07
5.945e-07
5.94263e-07
5.94166e-07
5.9415e-07
5.94194e-07
5.94394e-07
5.94976e-07
5.95239e-07
5.9512e-07
5.94594e-07
5.95172e-07
5.95327e-07
5.87563e-07
5.8746e-07
5.87464e-07
5.86634e-07
5.8659e-07
5.86599e-07
5.86607e-07
5.87303e-07
5.87458e-07
5.87464e-07
5.86525e-07
5.85052e-07
5.8505e-07
5.8505e-07
5.85052e-07
5.8627e-07
5.86653e-07
5.86634e-07
5.85052e-07
5.85051e-07
5.85051e-07
5.85051e-07
5.85051e-07
5.85052e-07
5.86416e-07
5.87391e-07
5.87563e-07
5.8659e-07
5.8505e-07
5.85051e-07
5.85051e-07
5.85051e-07
5.85051e-07
5.8505e-07
5.86318e-07
5.87272e-07
5.8746e-07
5.86599e-07
5.8505e-07
5.85051e-07
5.85051e-07
5.85051e-07
5.85051e-07
5.8505e-07
5.86303e-07
5.86746e-07
5.86607e-07
5.85052e-07
5.85051e-07
5.85051e-07
5.85051e-07
5.85051e-07
5.85052e-07
5.86347e-07
5.87325e-07
5.87303e-07
5.8627e-07
5.85052e-07
5.8505e-07
5.8505e-07
5.85052e-07
5.86005e-07
5.86547e-07
5.8748e-07
5.87457e-07
5.86652e-07
5.86416e-07
5.86318e-07
5.86303e-07
5.86347e-07
5.86547e-07
5.87128e-07
5.87391e-07
5.87272e-07
5.86746e-07
5.87325e-07
5.8748e-07
5.79715e-07
5.79612e-07
5.79617e-07
5.78787e-07
5.78743e-07
5.78751e-07
5.78759e-07
5.79456e-07
5.7961e-07
5.79617e-07
5.78678e-07
5.77204e-07
5.77203e-07
5.77203e-07
5.77204e-07
5.78423e-07
5.78805e-07
5.78786e-07
5.77204e-07
5.77204e-07
5.77203e-07
5.77203e-07
5.77204e-07
5.77204e-07
5.78568e-07
5.79544e-07
5.79715e-07
5.78743e-07
5.77203e-07
5.77203e-07
5.77203e-07
5.77203e-07
5.77203e-07
5.77203e-07
5.78471e-07
5.79425e-07
5.79612e-07
5.78751e-07
5.77203e-07
5.77203e-07
5.77203e-07
5.77203e-07
5.77203e-07
5.77203e-07
5.78455e-07
5.78899e-07
5.78759e-07
5.77204e-07
5.77204e-07
5.77203e-07
5.77203e-07
5.77204e-07
5.77204e-07
5.785e-07
5.79478e-07
5.79456e-07
5.78422e-07
5.77204e-07
5.77203e-07
5.77203e-07
5.77204e-07
5.78157e-07
5.78699e-07
5.79633e-07
5.7961e-07
5.78805e-07
5.78568e-07
5.78471e-07
5.78455e-07
5.785e-07
5.78699e-07
5.79281e-07
5.79544e-07
5.79425e-07
5.78899e-07
5.79478e-07
5.79633e-07
5.71868e-07
5.71765e-07
5.71769e-07
5.70939e-07
5.70895e-07
5.70904e-07
5.70912e-07
5.71608e-07
5.71763e-07
5.71769e-07
5.7083e-07
5.69357e-07
5.69355e-07
5.69355e-07
5.69357e-07
5.70575e-07
5.70958e-07
5.70939e-07
5.69357e-07
5.69356e-07
5.69356e-07
5.69356e-07
5.69356e-07
5.69357e-07
5.70721e-07
5.71696e-07
5.71868e-07
5.70895e-07
5.69355e-07
5.69356e-07
5.69356e-07
5.69356e-07
5.69356e-07
5.69355e-07
5.70623e-07
5.71577e-07
5.71765e-07
5.70904e-07
5.69355e-07
5.69356e-07
5.69356e-07
5.69356e-07
5.69356e-07
5.69355e-07
5.70608e-07
5.71051e-07
5.70912e-07
5.69357e-07
5.69356e-07
5.69356e-07
5.69356e-07
5.69356e-07
5.69357e-07
5.70652e-07
5.7163e-07
5.71608e-07
5.70575e-07
5.69357e-07
5.69355e-07
5.69355e-07
5.69357e-07
5.7031e-07
5.70852e-07
5.71785e-07
5.71763e-07
5.70958e-07
5.70721e-07
5.70623e-07
5.70608e-07
5.70652e-07
5.70852e-07
5.71433e-07
5.71696e-07
5.71577e-07
5.71051e-07
5.7163e-07
5.71785e-07
5.6402e-07
5.63917e-07
5.63922e-07
5.63091e-07
5.63048e-07
5.63056e-07
5.63064e-07
5.63761e-07
5.63915e-07
5.63922e-07
5.62983e-07
5.61509e-07
5.61508e-07
5.61508e-07
5.61509e-07
5.62727e-07
5.6311e-07
5.63091e-07
5.61509e-07
5.61509e-07
5.61508e-07
5.61508e-07
5.61509e-07
5.61509e-07
5.62873e-07
5.63849e-07
5.6402e-07
5.63047e-07
5.61508e-07
5.61508e-07
5.61508e-07
5.61508e-07
5.61508e-07
5.61508e-07
5.62776e-07
5.6373e-07
5.63917e-07
5.63056e-07
5.61508e-07
5.61508e-07
5.61508e-07
5.61508e-07
5.61508e-07
5.61508e-07
5.6276e-07
5.63204e-07
5.63064e-07
5.61509e-07
5.61509e-07
5.61508e-07
5.61508e-07
5.61509e-07
5.61509e-07
5.62805e-07
5.63783e-07
5.63761e-07
5.62727e-07
5.61509e-07
5.61508e-07
5.61508e-07
5.61509e-07
5.62462e-07
5.63004e-07
5.63938e-07
5.63915e-07
5.6311e-07
5.62873e-07
5.62776e-07
5.6276e-07
5.62805e-07
5.63004e-07
5.63586e-07
5.63849e-07
5.6373e-07
5.63204e-07
5.63783e-07
5.63938e-07
5.56173e-07
5.5607e-07
5.56074e-07
5.55244e-07
5.552e-07
5.55209e-07
5.55217e-07
5.55913e-07
5.56068e-07
5.56074e-07
5.55135e-07
5.53662e-07
5.5366e-07
5.5366e-07
5.53662e-07
5.5488e-07
5.55263e-07
5.55244e-07
5.53662e-07
5.53661e-07
5.53661e-07
5.53661e-07
5.53661e-07
5.53662e-07
5.55026e-07
5.56001e-07
5.56173e-07
5.552e-07
5.5366e-07
5.53661e-07
5.53661e-07
5.53661e-07
5.53661e-07
5.5366e-07
5.54928e-07
5.55882e-07
5.5607e-07
5.55209e-07
5.5366e-07
5.53661e-07
5.53661e-07
5.53661e-07
5.53661e-07
5.5366e-07
5.54913e-07
5.55356e-07
5.55217e-07
5.53662e-07
5.53661e-07
5.53661e-07
5.53661e-07
5.53661e-07
5.53662e-07
5.54957e-07
5.55935e-07
5.55913e-07
5.5488e-07
5.53662e-07
5.5366e-07
5.5366e-07
5.53662e-07
5.54615e-07
5.55157e-07
5.5609e-07
5.56067e-07
5.55263e-07
5.55026e-07
5.54928e-07
5.54913e-07
5.54957e-07
5.55157e-07
5.55738e-07
5.56001e-07
5.55882e-07
5.55356e-07
5.55935e-07
5.5609e-07
5.48325e-07
5.48222e-07
5.48227e-07
5.47397e-07
5.47353e-07
5.47361e-07
5.47369e-07
5.48066e-07
5.4822e-07
5.48227e-07
5.47288e-07
5.45814e-07
5.45813e-07
5.45813e-07
5.45814e-07
5.47033e-07
5.47415e-07
5.47396e-07
5.45814e-07
5.45814e-07
5.45813e-07
5.45813e-07
5.45814e-07
5.45814e-07
5.47178e-07
5.48154e-07
5.48325e-07
5.47353e-07
5.45813e-07
5.45813e-07
5.45813e-07
5.45813e-07
5.45813e-07
5.45813e-07
5.47081e-07
5.48035e-07
5.48222e-07
5.47361e-07
5.45813e-07
5.45813e-07
5.45813e-07
5.45813e-07
5.45813e-07
5.45813e-07
5.47065e-07
5.47509e-07
5.47369e-07
5.45814e-07
5.45814e-07
5.45813e-07
5.45813e-07
5.45814e-07
5.45814e-07
5.4711e-07
5.48088e-07
5.48066e-07
5.47033e-07
5.45814e-07
5.45813e-07
5.45813e-07
5.45814e-07
5.46767e-07
5.47309e-07
5.48243e-07
5.4822e-07
5.47415e-07
5.47178e-07
5.47081e-07
5.47065e-07
5.4711e-07
5.47309e-07
5.47891e-07
5.48154e-07
5.48035e-07
5.47509e-07
5.48088e-07
5.48243e-07
5.40478e-07
5.40375e-07
5.40379e-07
5.39549e-07
5.39505e-07
5.39514e-07
5.39522e-07
5.40218e-07
5.40373e-07
5.40379e-07
5.3944e-07
5.37967e-07
5.37965e-07
5.37965e-07
5.37967e-07
5.39185e-07
5.39568e-07
5.39549e-07
5.37967e-07
5.37966e-07
5.37966e-07
5.37966e-07
5.37966e-07
5.37967e-07
5.39331e-07
5.40306e-07
5.40478e-07
5.39505e-07
5.37965e-07
5.37966e-07
5.37966e-07
5.37966e-07
5.37966e-07
5.37965e-07
5.39233e-07
5.40187e-07
5.40375e-07
5.39514e-07
5.37965e-07
5.37966e-07
5.37966e-07
5.37966e-07
5.37966e-07
5.37965e-07
5.39218e-07
5.39661e-07
5.39522e-07
5.37967e-07
5.37966e-07
5.37966e-07
5.37966e-07
5.37966e-07
5.37967e-07
5.39262e-07
5.4024e-07
5.40218e-07
5.39185e-07
5.37967e-07
5.37965e-07
5.37965e-07
5.37967e-07
5.3892e-07
5.39462e-07
5.40395e-07
5.40373e-07
5.39568e-07
5.39331e-07
5.39233e-07
5.39218e-07
5.39262e-07
5.39462e-07
5.40043e-07
5.40306e-07
5.40187e-07
5.39661e-07
5.4024e-07
5.40395e-07
5.3263e-07
5.32527e-07
5.32532e-07
5.31701e-07
5.31657e-07
5.31666e-07
5.31674e-07
5.32371e-07
5.32525e-07
5.32532e-07
5.31593e-07
5.30119e-07
5.30117e-07
5.30117e-07
5.30119e-07
5.31337e-07
5.3172e-07
5.31701e-07
5.30119e-07
5.30119e-07
5.30118e-07
5.30118e-07
5.30119e-07
5.30119e-07
5.31483e-07
5.32459e-07
5.3263e-07
5.31657e-07
5.30118e-07
5.30118e-07
5.30118e-07
5.30118e-07
5.30118e-07
5.30117e-07
5.31386e-07
5.3234e-07
5.32527e-07
5.31666e-07
5.30118e-07
5.30118e-07
5.30118e-07
5.30118e-07
5.30118e-07
5.30117e-07
5.3137e-07
5.31814e-07
5.31674e-07
5.30119e-07
5.30119e-07
5.30118e-07
5.30118e-07
5.30119e-07
5.30119e-07
5.31414e-07
5.32393e-07
5.32371e-07
5.31337e-07
5.30119e-07
5.30118e-07
5.30118e-07
5.30119e-07
5.31072e-07
5.31614e-07
5.32548e-07
5.32525e-07
5.3172e-07
5.31483e-07
5.31386e-07
5.3137e-07
5.31414e-07
5.31614e-07
5.32196e-07
5.32459e-07
5.3234e-07
5.31814e-07
5.32393e-07
5.32548e-07
5.24782e-07
5.24679e-07
5.24684e-07
5.23854e-07
5.2381e-07
5.23818e-07
5.23826e-07
5.24523e-07
5.24677e-07
5.24684e-07
5.23745e-07
5.22271e-07
5.2227e-07
5.2227e-07
5.22271e-07
5.2349e-07
5.23872e-07
5.23854e-07
5.22271e-07
5.22271e-07
5.2227e-07
5.2227e-07
5.22271e-07
5.22271e-07
5.23635e-07
5.24611e-07
5.24782e-07
5.2381e-07
5.2227e-07
5.2227e-07
5.2227e-07
5.2227e-07
5.2227e-07
5.2227e-07
5.23538e-07
5.24492e-07
5.24679e-07
5.23818e-07
5.2227e-07
5.2227e-07
5.2227e-07
5.2227e-07
5.2227e-07
5.2227e-07
5.23522e-07
5.23966e-07
5.23826e-07
5.22271e-07
5.22271e-07
5.2227e-07
5.2227e-07
5.22271e-07
5.22271e-07
5.23567e-07
5.24545e-07
5.24523e-07
5.2349e-07
5.22271e-07
5.2227e-07
5.2227e-07
5.22271e-07
5.23224e-07
5.23766e-07
5.247e-07
5.24677e-07
5.23872e-07
5.23635e-07
5.23538e-07
5.23522e-07
5.23567e-07
5.23766e-07
5.24348e-07
5.24611e-07
5.24492e-07
5.23966e-07
5.24545e-07
5.247e-07
5.16935e-07
5.16832e-07
5.16836e-07
5.16006e-07
5.15962e-07
5.1597e-07
5.15978e-07
5.16675e-07
5.1683e-07
5.16836e-07
5.15897e-07
5.14423e-07
5.14422e-07
5.14422e-07
5.14423e-07
5.15642e-07
5.16024e-07
5.16006e-07
5.14423e-07
5.14423e-07
5.14422e-07
5.14422e-07
5.14423e-07
5.14423e-07
5.15787e-07
5.16763e-07
5.16935e-07
5.15962e-07
5.14422e-07
5.14422e-07
5.14422e-07
5.14422e-07
5.14422e-07
5.14422e-07
5.1569e-07
5.16644e-07
5.16831e-07
5.1597e-07
5.14422e-07
5.14422e-07
5.14422e-07
5.14422e-07
5.14422e-07
5.14422e-07
5.15674e-07
5.16118e-07
5.15978e-07
5.14423e-07
5.14423e-07
5.14422e-07
5.14422e-07
5.14423e-07
5.14423e-07
5.15719e-07
5.16697e-07
5.16675e-07
5.15642e-07
5.14423e-07
5.14422e-07
5.14422e-07
5.14423e-07
5.15376e-07
5.15919e-07
5.16852e-07
5.1683e-07
5.16024e-07
5.15787e-07
5.1569e-07
5.15674e-07
5.15719e-07
5.15919e-07
5.165e-07
5.16763e-07
5.16644e-07
5.16118e-07
5.16697e-07
5.16852e-07
5.09086e-07
5.08983e-07
5.08988e-07
5.08158e-07
5.08114e-07
5.08122e-07
5.0813e-07
5.08827e-07
5.08981e-07
5.08988e-07
5.08049e-07
5.06575e-07
5.06574e-07
5.06574e-07
5.06575e-07
5.07794e-07
5.08176e-07
5.08158e-07
5.06575e-07
5.06575e-07
5.06574e-07
5.06574e-07
5.06575e-07
5.06575e-07
5.07939e-07
5.08915e-07
5.09086e-07
5.08114e-07
5.06574e-07
5.06574e-07
5.06574e-07
5.06574e-07
5.06574e-07
5.06574e-07
5.07842e-07
5.08796e-07
5.08983e-07
5.08122e-07
5.06574e-07
5.06574e-07
5.06574e-07
5.06574e-07
5.06574e-07
5.06574e-07
5.07826e-07
5.0827e-07
5.0813e-07
5.06575e-07
5.06575e-07
5.06574e-07
5.06574e-07
5.06575e-07
5.06575e-07
5.07871e-07
5.08849e-07
5.08827e-07
5.07793e-07
5.06575e-07
5.06574e-07
5.06574e-07
5.06575e-07
5.07528e-07
5.0807e-07
5.09004e-07
5.08981e-07
5.08176e-07
5.07939e-07
5.07842e-07
5.07826e-07
5.07871e-07
5.0807e-07
5.08652e-07
5.08915e-07
5.08796e-07
5.0827e-07
5.08849e-07
5.09004e-07
5.01238e-07
5.01135e-07
5.0114e-07
5.00309e-07
5.00265e-07
5.00274e-07
5.00282e-07
5.00979e-07
5.01133e-07
5.0114e-07
5.00201e-07
4.98727e-07
4.98725e-07
4.98725e-07
4.98727e-07
4.99945e-07
5.00328e-07
5.00309e-07
4.98727e-07
4.98726e-07
4.98726e-07
4.98726e-07
4.98726e-07
4.98727e-07
5.00091e-07
5.01067e-07
5.01238e-07
5.00265e-07
4.98725e-07
4.98726e-07
4.98726e-07
4.98726e-07
4.98726e-07
4.98725e-07
4.99994e-07
5.00948e-07
5.01135e-07
5.00274e-07
4.98725e-07
4.98726e-07
4.98726e-07
4.98726e-07
4.98726e-07
4.98725e-07
4.99978e-07
5.00422e-07
5.00282e-07
4.98727e-07
4.98726e-07
4.98726e-07
4.98726e-07
4.98726e-07
4.98727e-07
5.00022e-07
5.01001e-07
5.00979e-07
4.99945e-07
4.98727e-07
4.98725e-07
4.98725e-07
4.98727e-07
4.9968e-07
5.00222e-07
5.01156e-07
5.01133e-07