/*--------------------------------*- C++ -*----------------------------------*\
| =========                 |                                                 |
| \\      /  F ield         | OpenFOAM: The Open Source CFD Toolbox           |
|  \\    /   O peration     | Version:  v2012                                 |
|   \\  /    A nd           | Website:  www.openfoam.com                      |
|    \\/     M anipulation  |                                                 |
\*---------------------------------------------------------------------------*/
FoamFile
{
    version     2.0;
    format      ascii;
    class       volScalarField;
    location    "0.13";
    object      p;
}
// * * * * * * * * * * * * * * * * * * * * * * * * * * * * * * * * * * * * * //

dimensions      [0 2 -2 0 0 0 0];


internalField   nonuniform List<scalar> 
189320
(
-1.5905e-06
-1.58192e-06
-1.59839e-06
-1.60085e-06
-1.6111e-06
-1.61423e-06
-1.6071e-06
-1.60514e-06
-1.60272e-06
-1.59838e-06
-1.61235e-06
-1.61323e-06
-1.61703e-06
-1.61782e-06
-1.61526e-06
-1.61274e-06
-1.60355e-06
-1.60084e-06
-1.61323e-06
-1.61878e-06
-1.62127e-06
-1.62176e-06
-1.62021e-06
-1.61604e-06
-1.61226e-06
-1.60204e-06
-1.59075e-06
-1.61112e-06
-1.61703e-06
-1.62127e-06
-1.62283e-06
-1.62308e-06
-1.62226e-06
-1.6196e-06
-1.61313e-06
-1.60348e-06
-1.58212e-06
-1.61427e-06
-1.61783e-06
-1.62176e-06
-1.62307e-06
-1.6233e-06
-1.62263e-06
-1.62037e-06
-1.61442e-06
-1.60402e-06
-1.60712e-06
-1.61526e-06
-1.6202e-06
-1.62225e-06
-1.62263e-06
-1.62145e-06
-1.61813e-06
-1.61246e-06
-1.59086e-06
-1.60516e-06
-1.61273e-06
-1.61601e-06
-1.61957e-06
-1.62035e-06
-1.61812e-06
-1.61321e-06
-1.61157e-06
-1.60183e-06
-1.60271e-06
-1.60351e-06
-1.61221e-06
-1.61306e-06
-1.61436e-06
-1.61243e-06
-1.61155e-06
-1.61086e-06
-1.60199e-06
-1.60338e-06
-1.60382e-06
-1.59076e-06
-1.60175e-06
-1.61104e-06
-1.61157e-06
-1.60747e-06
-1.60342e-06
-1.60306e-06
-1.60114e-06
-1.60314e-06
-1.61417e-06
-1.61206e-06
-1.60748e-06
-1.59345e-06
-1.60656e-06
-1.61007e-06
-1.61008e-06
-1.6066e-06
-1.61133e-06
-1.61433e-06
-1.60342e-06
-1.60658e-06
-1.61808e-06
-1.61826e-06
-1.61828e-06
-1.61808e-06
-1.60655e-06
-1.62787e-06
-1.62146e-06
-1.61111e-06
-1.60307e-06
-1.61007e-06
-1.61828e-06
-1.61797e-06
-1.61798e-06
-1.61827e-06
-1.61011e-06
-1.62886e-06
-1.62183e-06
-1.61161e-06
-1.60113e-06
-1.61005e-06
-1.61827e-06
-1.61797e-06
-1.61798e-06
-1.61826e-06
-1.61009e-06
-1.62941e-06
-1.61563e-06
-1.60314e-06
-1.60658e-06
-1.61806e-06
-1.61826e-06
-1.61828e-06
-1.61807e-06
-1.60656e-06
-1.62949e-06
-1.62712e-06
-1.61414e-06
-1.6113e-06
-1.60651e-06
-1.61004e-06
-1.61007e-06
-1.60657e-06
-1.6458e-06
-1.62368e-06
-1.61766e-06
-1.61203e-06
-1.61431e-06
-1.62783e-06
-1.62884e-06
-1.62939e-06
-1.62951e-06
-1.62372e-06
-1.62834e-06
-1.62139e-06
-1.6217e-06
-1.6156e-06
-1.62712e-06
-1.61765e-06
-1.59685e-06
-1.59758e-06
-1.59276e-06
-1.58794e-06
-1.58653e-06
-1.58488e-06
-1.5878e-06
-1.59946e-06
-1.59766e-06
-1.59277e-06
-1.57726e-06
-1.58957e-06
-1.59024e-06
-1.59025e-06
-1.58958e-06
-1.597e-06
-1.59815e-06
-1.58793e-06
-1.58957e-06
-1.59481e-06
-1.59526e-06
-1.59529e-06
-1.59481e-06
-1.58957e-06
-1.6132e-06
-1.60774e-06
-1.59684e-06
-1.58652e-06
-1.59023e-06
-1.59528e-06
-1.59551e-06
-1.59553e-06
-1.59527e-06
-1.59026e-06
-1.61928e-06
-1.60737e-06
-1.59756e-06
-1.58487e-06
-1.59022e-06
-1.59529e-06
-1.59553e-06
-1.59553e-06
-1.59527e-06
-1.59025e-06
-1.61992e-06
-1.60056e-06
-1.58779e-06
-1.58957e-06
-1.59481e-06
-1.59527e-06
-1.59529e-06
-1.59481e-06
-1.58957e-06
-1.61818e-06
-1.61443e-06
-1.59943e-06
-1.59698e-06
-1.58954e-06
-1.59022e-06
-1.59024e-06
-1.58956e-06
-1.62743e-06
-1.60823e-06
-1.60425e-06
-1.59763e-06
-1.59813e-06
-1.61319e-06
-1.61925e-06
-1.61989e-06
-1.61816e-06
-1.60825e-06
-1.61427e-06
-1.60772e-06
-1.60735e-06
-1.60054e-06
-1.61441e-06
-1.60424e-06
-1.57967e-06
-1.58036e-06
-1.57603e-06
-1.57071e-06
-1.56901e-06
-1.56727e-06
-1.57056e-06
-1.58253e-06
-1.58104e-06
-1.57602e-06
-1.5596e-06
-1.5722e-06
-1.57234e-06
-1.57234e-06
-1.57221e-06
-1.58047e-06
-1.58145e-06
-1.57069e-06
-1.5722e-06
-1.57399e-06
-1.57425e-06
-1.57427e-06
-1.57399e-06
-1.5722e-06
-1.59619e-06
-1.59078e-06
-1.57966e-06
-1.56901e-06
-1.57233e-06
-1.57426e-06
-1.5745e-06
-1.57451e-06
-1.57426e-06
-1.57234e-06
-1.60233e-06
-1.59018e-06
-1.58034e-06
-1.56727e-06
-1.57233e-06
-1.57427e-06
-1.57451e-06
-1.57451e-06
-1.57426e-06
-1.57234e-06
-1.60276e-06
-1.58318e-06
-1.57056e-06
-1.57219e-06
-1.57399e-06
-1.57426e-06
-1.57427e-06
-1.57399e-06
-1.57221e-06
-1.60092e-06
-1.59738e-06
-1.58252e-06
-1.58045e-06
-1.57219e-06
-1.57232e-06
-1.57233e-06
-1.5722e-06
-1.61122e-06
-1.59107e-06
-1.58747e-06
-1.581e-06
-1.58144e-06
-1.59618e-06
-1.60231e-06
-1.60275e-06
-1.60094e-06
-1.59109e-06
-1.59778e-06
-1.59078e-06
-1.59017e-06
-1.58316e-06
-1.59738e-06
-1.58747e-06
-1.56197e-06
-1.56265e-06
-1.55847e-06
-1.55296e-06
-1.55117e-06
-1.54936e-06
-1.55283e-06
-1.56491e-06
-1.56349e-06
-1.55848e-06
-1.54165e-06
-1.5544e-06
-1.55443e-06
-1.55443e-06
-1.5544e-06
-1.56294e-06
-1.56392e-06
-1.55295e-06
-1.55439e-06
-1.55504e-06
-1.55512e-06
-1.55512e-06
-1.55504e-06
-1.5544e-06
-1.57848e-06
-1.57318e-06
-1.56197e-06
-1.55116e-06
-1.55443e-06
-1.55512e-06
-1.5552e-06
-1.5552e-06
-1.55512e-06
-1.55443e-06
-1.58463e-06
-1.57248e-06
-1.56264e-06
-1.54936e-06
-1.55443e-06
-1.55512e-06
-1.5552e-06
-1.5552e-06
-1.55511e-06
-1.55443e-06
-1.58502e-06
-1.56543e-06
-1.55282e-06
-1.55439e-06
-1.55504e-06
-1.55512e-06
-1.55512e-06
-1.55504e-06
-1.5544e-06
-1.583e-06
-1.57975e-06
-1.5649e-06
-1.56294e-06
-1.55439e-06
-1.55443e-06
-1.55443e-06
-1.5544e-06
-1.59386e-06
-1.57338e-06
-1.56991e-06
-1.56349e-06
-1.56391e-06
-1.57847e-06
-1.58462e-06
-1.58502e-06
-1.58302e-06
-1.57342e-06
-1.58032e-06
-1.57317e-06
-1.57247e-06
-1.56543e-06
-1.57973e-06
-1.56991e-06
-1.54408e-06
-1.54476e-06
-1.54063e-06
-1.53506e-06
-1.53321e-06
-1.53137e-06
-1.53493e-06
-1.54706e-06
-1.54568e-06
-1.54063e-06
-1.52364e-06
-1.53645e-06
-1.53646e-06
-1.53646e-06
-1.53646e-06
-1.54511e-06
-1.5461e-06
-1.53506e-06
-1.53646e-06
-1.5367e-06
-1.53673e-06
-1.53673e-06
-1.5367e-06
-1.53646e-06
-1.56059e-06
-1.55532e-06
-1.54408e-06
-1.53321e-06
-1.53646e-06
-1.53673e-06
-1.53675e-06
-1.53675e-06
-1.53673e-06
-1.53646e-06
-1.56672e-06
-1.55459e-06
-1.54475e-06
-1.53137e-06
-1.53646e-06
-1.53673e-06
-1.53675e-06
-1.53675e-06
-1.53673e-06
-1.53646e-06
-1.5671e-06
-1.54754e-06
-1.53493e-06
-1.53646e-06
-1.53669e-06
-1.53673e-06
-1.53673e-06
-1.53669e-06
-1.53646e-06
-1.56505e-06
-1.56188e-06
-1.54706e-06
-1.54511e-06
-1.53646e-06
-1.53646e-06
-1.53646e-06
-1.53646e-06
-1.57612e-06
-1.55553e-06
-1.55208e-06
-1.54567e-06
-1.54609e-06
-1.56058e-06
-1.56671e-06
-1.5671e-06
-1.56507e-06
-1.55557e-06
-1.56254e-06
-1.55532e-06
-1.55459e-06
-1.54754e-06
-1.56187e-06
-1.55208e-06
-1.52613e-06
-1.5268e-06
-1.5227e-06
-1.5171e-06
-1.51521e-06
-1.51337e-06
-1.51698e-06
-1.52911e-06
-1.52774e-06
-1.5227e-06
-1.50564e-06
-1.51849e-06
-1.51848e-06
-1.51848e-06
-1.51849e-06
-1.52717e-06
-1.52817e-06
-1.51709e-06
-1.51848e-06
-1.51857e-06
-1.51858e-06
-1.51858e-06
-1.51857e-06
-1.51848e-06
-1.54264e-06
-1.53739e-06
-1.52613e-06
-1.5152e-06
-1.51848e-06
-1.51858e-06
-1.51859e-06
-1.51859e-06
-1.51859e-06
-1.51848e-06
-1.54875e-06
-1.53665e-06
-1.5268e-06
-1.51337e-06
-1.51848e-06
-1.51859e-06
-1.5186e-06
-1.51859e-06
-1.51859e-06
-1.51848e-06
-1.54913e-06
-1.52959e-06
-1.51699e-06
-1.51848e-06
-1.51857e-06
-1.51858e-06
-1.51858e-06
-1.51857e-06
-1.51848e-06
-1.54709e-06
-1.54395e-06
-1.52912e-06
-1.52717e-06
-1.51849e-06
-1.51848e-06
-1.51849e-06
-1.51849e-06
-1.55824e-06
-1.5376e-06
-1.53415e-06
-1.52774e-06
-1.52816e-06
-1.54264e-06
-1.54876e-06
-1.54912e-06
-1.5471e-06
-1.53762e-06
-1.54462e-06
-1.53739e-06
-1.53665e-06
-1.52958e-06
-1.54395e-06
-1.53415e-06
-1.50815e-06
-1.50882e-06
-1.50473e-06
-1.49912e-06
-1.49722e-06
-1.49538e-06
-1.49901e-06
-1.51114e-06
-1.50978e-06
-1.50473e-06
-1.48764e-06
-1.5005e-06
-1.50051e-06
-1.50051e-06
-1.5005e-06
-1.5092e-06
-1.51021e-06
-1.49912e-06
-1.50051e-06
-1.50053e-06
-1.50054e-06
-1.50054e-06
-1.50053e-06
-1.50051e-06
-1.52466e-06
-1.51942e-06
-1.50816e-06
-1.49722e-06
-1.50051e-06
-1.50054e-06
-1.50054e-06
-1.50055e-06
-1.50054e-06
-1.50051e-06
-1.53077e-06
-1.51867e-06
-1.50882e-06
-1.49538e-06
-1.50051e-06
-1.50054e-06
-1.50054e-06
-1.50055e-06
-1.50054e-06
-1.5005e-06
-1.53114e-06
-1.51161e-06
-1.49901e-06
-1.5005e-06
-1.50053e-06
-1.50054e-06
-1.50054e-06
-1.50053e-06
-1.5005e-06
-1.52909e-06
-1.52598e-06
-1.51115e-06
-1.5092e-06
-1.5005e-06
-1.50051e-06
-1.50051e-06
-1.5005e-06
-1.5403e-06
-1.51964e-06
-1.51618e-06
-1.50978e-06
-1.5102e-06
-1.52466e-06
-1.53077e-06
-1.53113e-06
-1.52911e-06
-1.51966e-06
-1.52666e-06
-1.51942e-06
-1.51867e-06
-1.5116e-06
-1.52598e-06
-1.51619e-06
-1.49018e-06
-1.49084e-06
-1.48675e-06
-1.48115e-06
-1.47923e-06
-1.47739e-06
-1.48103e-06
-1.49317e-06
-1.4918e-06
-1.48675e-06
-1.46965e-06
-1.48252e-06
-1.48252e-06
-1.48252e-06
-1.48252e-06
-1.49122e-06
-1.49224e-06
-1.48114e-06
-1.48251e-06
-1.48254e-06
-1.48254e-06
-1.48254e-06
-1.48253e-06
-1.48252e-06
-1.50669e-06
-1.50145e-06
-1.49018e-06
-1.47923e-06
-1.48252e-06
-1.48254e-06
-1.48254e-06
-1.48254e-06
-1.48254e-06
-1.48252e-06
-1.5128e-06
-1.50069e-06
-1.49085e-06
-1.4774e-06
-1.48252e-06
-1.48253e-06
-1.48254e-06
-1.48254e-06
-1.48254e-06
-1.48252e-06
-1.51316e-06
-1.49363e-06
-1.48103e-06
-1.48252e-06
-1.48254e-06
-1.48254e-06
-1.48254e-06
-1.48254e-06
-1.48252e-06
-1.51111e-06
-1.508e-06
-1.49317e-06
-1.49123e-06
-1.48251e-06
-1.48252e-06
-1.48252e-06
-1.48251e-06
-1.52232e-06
-1.50166e-06
-1.4982e-06
-1.4918e-06
-1.49223e-06
-1.50669e-06
-1.5128e-06
-1.51316e-06
-1.51113e-06
-1.50169e-06
-1.50869e-06
-1.50145e-06
-1.50069e-06
-1.49362e-06
-1.508e-06
-1.49821e-06
-1.4722e-06
-1.47286e-06
-1.46877e-06
-1.46316e-06
-1.46125e-06
-1.45941e-06
-1.46305e-06
-1.47519e-06
-1.47383e-06
-1.46877e-06
-1.45166e-06
-1.46454e-06
-1.46454e-06
-1.46454e-06
-1.46454e-06
-1.47325e-06
-1.47426e-06
-1.46315e-06
-1.46454e-06
-1.46454e-06
-1.46454e-06
-1.46454e-06
-1.46454e-06
-1.46454e-06
-1.48871e-06
-1.48347e-06
-1.4722e-06
-1.46125e-06
-1.46454e-06
-1.46454e-06
-1.46455e-06
-1.46454e-06
-1.46455e-06
-1.46454e-06
-1.49482e-06
-1.48272e-06
-1.47287e-06
-1.45941e-06
-1.46454e-06
-1.46455e-06
-1.46455e-06
-1.46454e-06
-1.46455e-06
-1.46454e-06
-1.49518e-06
-1.47565e-06
-1.46306e-06
-1.46453e-06
-1.46454e-06
-1.46454e-06
-1.46454e-06
-1.46454e-06
-1.46453e-06
-1.49313e-06
-1.49003e-06
-1.47519e-06
-1.47325e-06
-1.46454e-06
-1.46454e-06
-1.46454e-06
-1.46454e-06
-1.50435e-06
-1.48369e-06
-1.48023e-06
-1.47383e-06
-1.47425e-06
-1.48871e-06
-1.49482e-06
-1.49518e-06
-1.49315e-06
-1.48371e-06
-1.49071e-06
-1.48347e-06
-1.48271e-06
-1.47564e-06
-1.49003e-06
-1.48024e-06
-1.45421e-06
-1.45488e-06
-1.45079e-06
-1.44517e-06
-1.44326e-06
-1.44142e-06
-1.44507e-06
-1.4572e-06
-1.45584e-06
-1.45079e-06
-1.43369e-06
-1.44655e-06
-1.44655e-06
-1.44655e-06
-1.44655e-06
-1.45526e-06
-1.45627e-06
-1.44517e-06
-1.44656e-06
-1.44655e-06
-1.44655e-06
-1.44655e-06
-1.44655e-06
-1.44656e-06
-1.47072e-06
-1.46549e-06
-1.45421e-06
-1.44326e-06
-1.44655e-06
-1.44655e-06
-1.44656e-06
-1.44656e-06
-1.44655e-06
-1.44656e-06
-1.47683e-06
-1.46473e-06
-1.45488e-06
-1.44143e-06
-1.44655e-06
-1.44655e-06
-1.44656e-06
-1.44656e-06
-1.44655e-06
-1.44656e-06
-1.47719e-06
-1.45767e-06
-1.44507e-06
-1.44655e-06
-1.44655e-06
-1.44655e-06
-1.44655e-06
-1.44655e-06
-1.44656e-06
-1.47514e-06
-1.47204e-06
-1.45721e-06
-1.45527e-06
-1.44656e-06
-1.44655e-06
-1.44655e-06
-1.44656e-06
-1.48636e-06
-1.4657e-06
-1.46224e-06
-1.45584e-06
-1.45627e-06
-1.47072e-06
-1.47684e-06
-1.47719e-06
-1.47516e-06
-1.46572e-06
-1.47273e-06
-1.46549e-06
-1.46473e-06
-1.45766e-06
-1.47204e-06
-1.46225e-06
-1.43623e-06
-1.4369e-06
-1.43282e-06
-1.42719e-06
-1.42528e-06
-1.42344e-06
-1.42709e-06
-1.43922e-06
-1.43785e-06
-1.43281e-06
-1.4157e-06
-1.42857e-06
-1.42857e-06
-1.42857e-06
-1.42857e-06
-1.43728e-06
-1.43829e-06
-1.42719e-06
-1.42857e-06
-1.42857e-06
-1.42857e-06
-1.42857e-06
-1.42857e-06
-1.42857e-06
-1.45274e-06
-1.4475e-06
-1.43623e-06
-1.42528e-06
-1.42857e-06
-1.42857e-06
-1.42857e-06
-1.42857e-06
-1.42857e-06
-1.42857e-06
-1.45885e-06
-1.44675e-06
-1.4369e-06
-1.42344e-06
-1.42857e-06
-1.42857e-06
-1.42857e-06
-1.42857e-06
-1.42857e-06
-1.42857e-06
-1.45921e-06
-1.43968e-06
-1.42709e-06
-1.42857e-06
-1.42857e-06
-1.42857e-06
-1.42857e-06
-1.42857e-06
-1.42857e-06
-1.45716e-06
-1.45406e-06
-1.43922e-06
-1.43729e-06
-1.42857e-06
-1.42857e-06
-1.42857e-06
-1.42857e-06
-1.46838e-06
-1.44772e-06
-1.44426e-06
-1.43786e-06
-1.43828e-06
-1.45274e-06
-1.45885e-06
-1.45921e-06
-1.45718e-06
-1.44774e-06
-1.45475e-06
-1.4475e-06
-1.44674e-06
-1.43967e-06
-1.45406e-06
-1.44427e-06
-1.41824e-06
-1.41891e-06
-1.41483e-06
-1.4092e-06
-1.40729e-06
-1.40546e-06
-1.4091e-06
-1.42123e-06
-1.41987e-06
-1.41482e-06
-1.39771e-06
-1.41058e-06
-1.41058e-06
-1.41058e-06
-1.41058e-06
-1.41929e-06
-1.4203e-06
-1.4092e-06
-1.41058e-06
-1.41059e-06
-1.41059e-06
-1.41059e-06
-1.41059e-06
-1.41058e-06
-1.43476e-06
-1.42952e-06
-1.41824e-06
-1.40729e-06
-1.41058e-06
-1.41059e-06
-1.41058e-06
-1.41058e-06
-1.41059e-06
-1.41058e-06
-1.44086e-06
-1.42876e-06
-1.41891e-06
-1.40545e-06
-1.41058e-06
-1.41059e-06
-1.41059e-06
-1.41059e-06
-1.41059e-06
-1.41058e-06
-1.44122e-06
-1.4217e-06
-1.40911e-06
-1.41058e-06
-1.41059e-06
-1.41058e-06
-1.41058e-06
-1.41059e-06
-1.41058e-06
-1.43918e-06
-1.43607e-06
-1.42124e-06
-1.4193e-06
-1.41058e-06
-1.41058e-06
-1.41058e-06
-1.41058e-06
-1.4504e-06
-1.42973e-06
-1.42627e-06
-1.41987e-06
-1.4203e-06
-1.43476e-06
-1.44087e-06
-1.44122e-06
-1.4392e-06
-1.42976e-06
-1.43676e-06
-1.42952e-06
-1.42876e-06
-1.42169e-06
-1.43608e-06
-1.42628e-06
-1.40026e-06
-1.40093e-06
-1.39685e-06
-1.39122e-06
-1.38931e-06
-1.38747e-06
-1.39112e-06
-1.40325e-06
-1.40188e-06
-1.39684e-06
-1.37973e-06
-1.3926e-06
-1.3926e-06
-1.3926e-06
-1.3926e-06
-1.40131e-06
-1.40232e-06
-1.39122e-06
-1.3926e-06
-1.3926e-06
-1.3926e-06
-1.3926e-06
-1.3926e-06
-1.3926e-06
-1.41677e-06
-1.41153e-06
-1.40026e-06
-1.38931e-06
-1.3926e-06
-1.3926e-06
-1.3926e-06
-1.3926e-06
-1.3926e-06
-1.3926e-06
-1.42288e-06
-1.41078e-06
-1.40093e-06
-1.38747e-06
-1.3926e-06
-1.3926e-06
-1.3926e-06
-1.3926e-06
-1.3926e-06
-1.3926e-06
-1.42324e-06
-1.40371e-06
-1.39112e-06
-1.3926e-06
-1.3926e-06
-1.3926e-06
-1.3926e-06
-1.3926e-06
-1.3926e-06
-1.42119e-06
-1.41809e-06
-1.40325e-06
-1.40132e-06
-1.3926e-06
-1.3926e-06
-1.3926e-06
-1.3926e-06
-1.43241e-06
-1.41175e-06
-1.40829e-06
-1.40189e-06
-1.40231e-06
-1.41677e-06
-1.42288e-06
-1.42324e-06
-1.42121e-06
-1.41177e-06
-1.41878e-06
-1.41153e-06
-1.41078e-06
-1.40371e-06
-1.41809e-06
-1.4083e-06
-1.38227e-06
-1.38294e-06
-1.37886e-06
-1.37324e-06
-1.37132e-06
-1.36949e-06
-1.37314e-06
-1.38527e-06
-1.3839e-06
-1.37885e-06
-1.36174e-06
-1.37462e-06
-1.37462e-06
-1.37462e-06
-1.37462e-06
-1.38332e-06
-1.38433e-06
-1.37323e-06
-1.37462e-06
-1.37462e-06
-1.37462e-06
-1.37462e-06
-1.37462e-06
-1.37462e-06
-1.39879e-06
-1.39355e-06
-1.38227e-06
-1.37132e-06
-1.37462e-06
-1.37462e-06
-1.37462e-06
-1.37462e-06
-1.37462e-06
-1.37462e-06
-1.40489e-06
-1.39279e-06
-1.38294e-06
-1.36949e-06
-1.37462e-06
-1.37462e-06
-1.37462e-06
-1.37462e-06
-1.37462e-06
-1.37462e-06
-1.40525e-06
-1.38573e-06
-1.37314e-06
-1.37462e-06
-1.37462e-06
-1.37462e-06
-1.37462e-06
-1.37462e-06
-1.37462e-06
-1.40321e-06
-1.4001e-06
-1.38527e-06
-1.38333e-06
-1.37462e-06
-1.37462e-06
-1.37462e-06
-1.37462e-06
-1.41443e-06
-1.39376e-06
-1.39031e-06
-1.3839e-06
-1.38433e-06
-1.39879e-06
-1.4049e-06
-1.40525e-06
-1.40323e-06
-1.39379e-06
-1.40079e-06
-1.39355e-06
-1.39279e-06
-1.38572e-06
-1.40011e-06
-1.39031e-06
-1.36429e-06
-1.36496e-06
-1.36088e-06
-1.35525e-06
-1.35334e-06
-1.3515e-06
-1.35515e-06
-1.36728e-06
-1.36591e-06
-1.36087e-06
-1.34376e-06
-1.35663e-06
-1.35663e-06
-1.35663e-06
-1.35663e-06
-1.36534e-06
-1.36635e-06
-1.35525e-06
-1.35663e-06
-1.35663e-06
-1.35663e-06
-1.35663e-06
-1.35663e-06
-1.35663e-06
-1.3808e-06
-1.37556e-06
-1.36429e-06
-1.35334e-06
-1.35663e-06
-1.35663e-06
-1.35663e-06
-1.35663e-06
-1.35663e-06
-1.35663e-06
-1.38691e-06
-1.37481e-06
-1.36496e-06
-1.3515e-06
-1.35663e-06
-1.35663e-06
-1.35663e-06
-1.35663e-06
-1.35663e-06
-1.35663e-06
-1.38727e-06
-1.36774e-06
-1.35515e-06
-1.35663e-06
-1.35663e-06
-1.35663e-06
-1.35663e-06
-1.35663e-06
-1.35663e-06
-1.38522e-06
-1.38212e-06
-1.36729e-06
-1.36535e-06
-1.35663e-06
-1.35663e-06
-1.35663e-06
-1.35663e-06
-1.39644e-06
-1.37578e-06
-1.37232e-06
-1.36592e-06
-1.36635e-06
-1.3808e-06
-1.38691e-06
-1.38727e-06
-1.38524e-06
-1.37581e-06
-1.38281e-06
-1.37557e-06
-1.37481e-06
-1.36774e-06
-1.38212e-06
-1.37233e-06
-1.34631e-06
-1.34697e-06
-1.34289e-06
-1.33727e-06
-1.33535e-06
-1.33352e-06
-1.33717e-06
-1.3493e-06
-1.34793e-06
-1.34289e-06
-1.32578e-06
-1.33865e-06
-1.33865e-06
-1.33865e-06
-1.33865e-06
-1.34735e-06
-1.34837e-06
-1.33727e-06
-1.33865e-06
-1.33865e-06
-1.33865e-06
-1.33865e-06
-1.33865e-06
-1.33865e-06
-1.36282e-06
-1.35758e-06
-1.34631e-06
-1.33536e-06
-1.33865e-06
-1.33865e-06
-1.33865e-06
-1.33865e-06
-1.33865e-06
-1.33865e-06
-1.36892e-06
-1.35682e-06
-1.34697e-06
-1.33352e-06
-1.33865e-06
-1.33865e-06
-1.33865e-06
-1.33865e-06
-1.33865e-06
-1.33865e-06
-1.36929e-06
-1.34976e-06
-1.33717e-06
-1.33865e-06
-1.33865e-06
-1.33865e-06
-1.33865e-06
-1.33865e-06
-1.33865e-06
-1.36724e-06
-1.36413e-06
-1.3493e-06
-1.34737e-06
-1.33865e-06
-1.33865e-06
-1.33865e-06
-1.33865e-06
-1.37846e-06
-1.3578e-06
-1.35434e-06
-1.34794e-06
-1.34836e-06
-1.36282e-06
-1.36893e-06
-1.36929e-06
-1.36726e-06
-1.35782e-06
-1.36483e-06
-1.35758e-06
-1.35683e-06
-1.34975e-06
-1.36414e-06
-1.35435e-06
-1.32832e-06
-1.32899e-06
-1.32491e-06
-1.31929e-06
-1.31737e-06
-1.31554e-06
-1.31919e-06
-1.33131e-06
-1.32995e-06
-1.3249e-06
-1.30779e-06
-1.32067e-06
-1.32067e-06
-1.32067e-06
-1.32067e-06
-1.32937e-06
-1.33038e-06
-1.31928e-06
-1.32067e-06
-1.32067e-06
-1.32067e-06
-1.32067e-06
-1.32067e-06
-1.32067e-06
-1.34484e-06
-1.3396e-06
-1.32832e-06
-1.31737e-06
-1.32067e-06
-1.32067e-06
-1.32067e-06
-1.32067e-06
-1.32067e-06
-1.32067e-06
-1.35094e-06
-1.33884e-06
-1.32899e-06
-1.31554e-06
-1.32067e-06
-1.32067e-06
-1.32067e-06
-1.32067e-06
-1.32067e-06
-1.32067e-06
-1.3513e-06
-1.33178e-06
-1.31919e-06
-1.32067e-06
-1.32067e-06
-1.32067e-06
-1.32067e-06
-1.32067e-06
-1.32067e-06
-1.34926e-06
-1.34615e-06
-1.33132e-06
-1.32938e-06
-1.32067e-06
-1.32067e-06
-1.32067e-06
-1.32067e-06
-1.36048e-06
-1.33981e-06
-1.33635e-06
-1.32995e-06
-1.33038e-06
-1.34484e-06
-1.35095e-06
-1.3513e-06
-1.34928e-06
-1.33984e-06
-1.34684e-06
-1.3396e-06
-1.33884e-06
-1.33177e-06
-1.34616e-06
-1.33636e-06
-1.31034e-06
-1.31101e-06
-1.30693e-06
-1.3013e-06
-1.29939e-06
-1.29755e-06
-1.3012e-06
-1.31333e-06
-1.31197e-06
-1.30692e-06
-1.28981e-06
-1.30268e-06
-1.30268e-06
-1.30268e-06
-1.30268e-06
-1.31139e-06
-1.3124e-06
-1.3013e-06
-1.30268e-06
-1.30268e-06
-1.30268e-06
-1.30268e-06
-1.30268e-06
-1.30268e-06
-1.32685e-06
-1.32161e-06
-1.31034e-06
-1.29939e-06
-1.30268e-06
-1.30268e-06
-1.30268e-06
-1.30268e-06
-1.30268e-06
-1.30268e-06
-1.33296e-06
-1.32086e-06
-1.31101e-06
-1.29755e-06
-1.30268e-06
-1.30268e-06
-1.30268e-06
-1.30268e-06
-1.30268e-06
-1.30268e-06
-1.33332e-06
-1.31379e-06
-1.3012e-06
-1.30268e-06
-1.30268e-06
-1.30268e-06
-1.30268e-06
-1.30268e-06
-1.30268e-06
-1.33127e-06
-1.32817e-06
-1.31334e-06
-1.3114e-06
-1.30268e-06
-1.30268e-06
-1.30268e-06
-1.30268e-06
-1.3425e-06
-1.32183e-06
-1.31837e-06
-1.31197e-06
-1.3124e-06
-1.32685e-06
-1.33296e-06
-1.33332e-06
-1.33129e-06
-1.32186e-06
-1.32886e-06
-1.32162e-06
-1.32086e-06
-1.31379e-06
-1.32817e-06
-1.31838e-06
-1.29235e-06
-1.29302e-06
-1.28894e-06
-1.28332e-06
-1.2814e-06
-1.27957e-06
-1.28322e-06
-1.29535e-06
-1.29398e-06
-1.28894e-06
-1.27183e-06
-1.2847e-06
-1.2847e-06
-1.2847e-06
-1.2847e-06
-1.29341e-06
-1.29442e-06
-1.28332e-06
-1.2847e-06
-1.2847e-06
-1.2847e-06
-1.2847e-06
-1.2847e-06
-1.2847e-06
-1.30887e-06
-1.30363e-06
-1.29236e-06
-1.2814e-06
-1.2847e-06
-1.2847e-06
-1.2847e-06
-1.2847e-06
-1.2847e-06
-1.2847e-06
-1.31497e-06
-1.30287e-06
-1.29302e-06
-1.27957e-06
-1.2847e-06
-1.2847e-06
-1.2847e-06
-1.2847e-06
-1.2847e-06
-1.2847e-06
-1.31534e-06
-1.29581e-06
-1.28322e-06
-1.2847e-06
-1.2847e-06
-1.2847e-06
-1.2847e-06
-1.2847e-06
-1.2847e-06
-1.31329e-06
-1.31018e-06
-1.29535e-06
-1.29342e-06
-1.2847e-06
-1.2847e-06
-1.2847e-06
-1.2847e-06
-1.32451e-06
-1.30385e-06
-1.30039e-06
-1.29399e-06
-1.29441e-06
-1.30887e-06
-1.31498e-06
-1.31533e-06
-1.31331e-06
-1.30387e-06
-1.31088e-06
-1.30363e-06
-1.30288e-06
-1.2958e-06
-1.31019e-06
-1.3004e-06
-1.27437e-06
-1.27504e-06
-1.27096e-06
-1.26533e-06
-1.26342e-06
-1.26158e-06
-1.26523e-06
-1.27737e-06
-1.276e-06
-1.27095e-06
-1.25384e-06
-1.26671e-06
-1.26671e-06
-1.26671e-06
-1.26671e-06
-1.27542e-06
-1.27643e-06
-1.26533e-06
-1.26671e-06
-1.26671e-06
-1.26671e-06
-1.26671e-06
-1.26671e-06
-1.26671e-06
-1.29088e-06
-1.28564e-06
-1.27437e-06
-1.26342e-06
-1.26671e-06
-1.26671e-06
-1.26671e-06
-1.26671e-06
-1.26671e-06
-1.26671e-06
-1.29699e-06
-1.28489e-06
-1.27504e-06
-1.26158e-06
-1.26671e-06
-1.26671e-06
-1.26671e-06
-1.26671e-06
-1.26671e-06
-1.26671e-06
-1.29735e-06
-1.27782e-06
-1.26523e-06
-1.26671e-06
-1.26671e-06
-1.26671e-06
-1.26671e-06
-1.26671e-06
-1.26671e-06
-1.2953e-06
-1.2922e-06
-1.27737e-06
-1.27543e-06
-1.26671e-06
-1.26671e-06
-1.26671e-06
-1.26671e-06
-1.30653e-06
-1.28586e-06
-1.2824e-06
-1.276e-06
-1.27643e-06
-1.29088e-06
-1.29699e-06
-1.29735e-06
-1.29533e-06
-1.28589e-06
-1.29289e-06
-1.28565e-06
-1.28489e-06
-1.27782e-06
-1.29221e-06
-1.28241e-06
-1.25638e-06
-1.25705e-06
-1.25298e-06
-1.24735e-06
-1.24543e-06
-1.2436e-06
-1.24725e-06
-1.25938e-06
-1.25801e-06
-1.25297e-06
-1.23585e-06
-1.24873e-06
-1.24873e-06
-1.24873e-06
-1.24873e-06
-1.25744e-06
-1.25844e-06
-1.24734e-06
-1.24873e-06
-1.24873e-06
-1.24873e-06
-1.24873e-06
-1.24873e-06
-1.24873e-06
-1.2729e-06
-1.26766e-06
-1.25639e-06
-1.24543e-06
-1.24873e-06
-1.24873e-06
-1.24873e-06
-1.24873e-06
-1.24873e-06
-1.24873e-06
-1.279e-06
-1.2669e-06
-1.25705e-06
-1.2436e-06
-1.24873e-06
-1.24873e-06
-1.24873e-06
-1.24873e-06
-1.24873e-06
-1.24873e-06
-1.27936e-06
-1.25984e-06
-1.24725e-06
-1.24873e-06
-1.24873e-06
-1.24873e-06
-1.24873e-06
-1.24873e-06
-1.24873e-06
-1.27732e-06
-1.27421e-06
-1.25938e-06
-1.25744e-06
-1.24873e-06
-1.24873e-06
-1.24873e-06
-1.24873e-06
-1.28854e-06
-1.26787e-06
-1.26442e-06
-1.25802e-06
-1.25844e-06
-1.2729e-06
-1.27901e-06
-1.27937e-06
-1.27734e-06
-1.2679e-06
-1.2749e-06
-1.26766e-06
-1.26691e-06
-1.25984e-06
-1.27422e-06
-1.26442e-06
-1.2384e-06
-1.23907e-06
-1.23499e-06
-1.22936e-06
-1.22745e-06
-1.22561e-06
-1.22926e-06
-1.2414e-06
-1.24003e-06
-1.23498e-06
-1.21787e-06
-1.23074e-06
-1.23074e-06
-1.23074e-06
-1.23074e-06
-1.23945e-06
-1.24046e-06
-1.22936e-06
-1.23074e-06
-1.23074e-06
-1.23074e-06
-1.23074e-06
-1.23074e-06
-1.23074e-06
-1.25491e-06
-1.24967e-06
-1.2384e-06
-1.22745e-06
-1.23074e-06
-1.23074e-06
-1.23074e-06
-1.23074e-06
-1.23074e-06
-1.23074e-06
-1.26102e-06
-1.24892e-06
-1.23907e-06
-1.22561e-06
-1.23074e-06
-1.23074e-06
-1.23074e-06
-1.23074e-06
-1.23074e-06
-1.23074e-06
-1.26138e-06
-1.24185e-06
-1.22926e-06
-1.23074e-06
-1.23074e-06
-1.23074e-06
-1.23074e-06
-1.23074e-06
-1.23074e-06
-1.25933e-06
-1.25623e-06
-1.2414e-06
-1.23946e-06
-1.23074e-06
-1.23074e-06
-1.23074e-06
-1.23074e-06
-1.27055e-06
-1.24989e-06
-1.24643e-06
-1.24003e-06
-1.24046e-06
-1.25491e-06
-1.26102e-06
-1.26138e-06
-1.25936e-06
-1.24992e-06
-1.25692e-06
-1.24968e-06
-1.24892e-06
-1.24185e-06
-1.25623e-06
-1.24644e-06
-1.22041e-06
-1.22108e-06
-1.21701e-06
-1.21138e-06
-1.20946e-06
-1.20763e-06
-1.21128e-06
-1.22341e-06
-1.22204e-06
-1.217e-06
-1.19989e-06
-1.21276e-06
-1.21276e-06
-1.21276e-06
-1.21276e-06
-1.22147e-06
-1.22247e-06
-1.21138e-06
-1.21276e-06
-1.21276e-06
-1.21276e-06
-1.21276e-06
-1.21276e-06
-1.21276e-06
-1.23693e-06
-1.23169e-06
-1.22042e-06
-1.20947e-06
-1.21276e-06
-1.21276e-06
-1.21276e-06
-1.21276e-06
-1.21276e-06
-1.21276e-06
-1.24303e-06
-1.23093e-06
-1.22109e-06
-1.20763e-06
-1.21276e-06
-1.21276e-06
-1.21276e-06
-1.21276e-06
-1.21276e-06
-1.21276e-06
-1.2434e-06
-1.22387e-06
-1.21128e-06
-1.21276e-06
-1.21276e-06
-1.21276e-06
-1.21276e-06
-1.21276e-06
-1.21276e-06
-1.24135e-06
-1.23824e-06
-1.22341e-06
-1.22148e-06
-1.21276e-06
-1.21276e-06
-1.21276e-06
-1.21276e-06
-1.25257e-06
-1.23191e-06
-1.22845e-06
-1.22205e-06
-1.22247e-06
-1.23693e-06
-1.24304e-06
-1.2434e-06
-1.24137e-06
-1.23193e-06
-1.23893e-06
-1.23169e-06
-1.23094e-06
-1.22387e-06
-1.23825e-06
-1.22845e-06
-1.20243e-06
-1.2031e-06
-1.19902e-06
-1.1934e-06
-1.19148e-06
-1.18965e-06
-1.1933e-06
-1.20543e-06
-1.20406e-06
-1.19901e-06
-1.1819e-06
-1.19478e-06
-1.19478e-06
-1.19478e-06
-1.19478e-06
-1.20348e-06
-1.20449e-06
-1.19339e-06
-1.19478e-06
-1.19478e-06
-1.19478e-06
-1.19478e-06
-1.19478e-06
-1.19478e-06
-1.21895e-06
-1.21371e-06
-1.20243e-06
-1.19148e-06
-1.19478e-06
-1.19478e-06
-1.19478e-06
-1.19478e-06
-1.19478e-06
-1.19478e-06
-1.22505e-06
-1.21295e-06
-1.2031e-06
-1.18965e-06
-1.19478e-06
-1.19478e-06
-1.19478e-06
-1.19478e-06
-1.19478e-06
-1.19478e-06
-1.22541e-06
-1.20589e-06
-1.1933e-06
-1.19478e-06
-1.19478e-06
-1.19478e-06
-1.19478e-06
-1.19478e-06
-1.19478e-06
-1.22337e-06
-1.22026e-06
-1.20543e-06
-1.20349e-06
-1.19478e-06
-1.19478e-06
-1.19478e-06
-1.19478e-06
-1.23459e-06
-1.21392e-06
-1.21046e-06
-1.20406e-06
-1.20449e-06
-1.21895e-06
-1.22505e-06
-1.22541e-06
-1.22339e-06
-1.21395e-06
-1.22095e-06
-1.21371e-06
-1.21295e-06
-1.20588e-06
-1.22027e-06
-1.21047e-06
-1.18445e-06
-1.18512e-06
-1.18104e-06
-1.17541e-06
-1.1735e-06
-1.17166e-06
-1.17532e-06
-1.18745e-06
-1.18608e-06
-1.18103e-06
-1.16392e-06
-1.17679e-06
-1.17679e-06
-1.17679e-06
-1.17679e-06
-1.1855e-06
-1.18651e-06
-1.17541e-06
-1.17679e-06
-1.17679e-06
-1.17679e-06
-1.17679e-06
-1.17679e-06
-1.17679e-06
-1.20096e-06
-1.19572e-06
-1.18445e-06
-1.1735e-06
-1.17679e-06
-1.17679e-06
-1.17679e-06
-1.17679e-06
-1.17679e-06
-1.17679e-06
-1.20707e-06
-1.19497e-06
-1.18512e-06
-1.17166e-06
-1.17679e-06
-1.17679e-06
-1.17679e-06
-1.17679e-06
-1.17679e-06
-1.17679e-06
-1.20743e-06
-1.1879e-06
-1.17531e-06
-1.17679e-06
-1.17679e-06
-1.17679e-06
-1.17679e-06
-1.17679e-06
-1.17679e-06
-1.20538e-06
-1.20228e-06
-1.18745e-06
-1.18551e-06
-1.17679e-06
-1.17679e-06
-1.17679e-06
-1.17679e-06
-1.21661e-06
-1.19594e-06
-1.19248e-06
-1.18608e-06
-1.18651e-06
-1.20096e-06
-1.20707e-06
-1.20743e-06
-1.20541e-06
-1.19597e-06
-1.20297e-06
-1.19573e-06
-1.19497e-06
-1.1879e-06
-1.20228e-06
-1.19249e-06
-1.16647e-06
-1.16713e-06
-1.16306e-06
-1.15743e-06
-1.15551e-06
-1.15368e-06
-1.15733e-06
-1.16946e-06
-1.16809e-06
-1.16305e-06
-1.14594e-06
-1.15881e-06
-1.15881e-06
-1.15881e-06
-1.15881e-06
-1.16752e-06
-1.16853e-06
-1.15743e-06
-1.15881e-06
-1.15881e-06
-1.15881e-06
-1.15881e-06
-1.15881e-06
-1.15881e-06
-1.18298e-06
-1.17774e-06
-1.16647e-06
-1.15552e-06
-1.15881e-06
-1.15881e-06
-1.15881e-06
-1.15881e-06
-1.15881e-06
-1.15881e-06
-1.18909e-06
-1.17699e-06
-1.16714e-06
-1.15368e-06
-1.15881e-06
-1.15881e-06
-1.15881e-06
-1.15881e-06
-1.15881e-06
-1.15881e-06
-1.18945e-06
-1.16992e-06
-1.15733e-06
-1.15881e-06
-1.15881e-06
-1.15881e-06
-1.15881e-06
-1.15881e-06
-1.15881e-06
-1.1874e-06
-1.1843e-06
-1.16946e-06
-1.16753e-06
-1.15881e-06
-1.15881e-06
-1.15881e-06
-1.15881e-06
-1.19862e-06
-1.17796e-06
-1.1745e-06
-1.1681e-06
-1.16852e-06
-1.18298e-06
-1.18909e-06
-1.18945e-06
-1.18742e-06
-1.17798e-06
-1.18499e-06
-1.17774e-06
-1.17699e-06
-1.16992e-06
-1.1843e-06
-1.1745e-06
-1.14848e-06
-1.14915e-06
-1.14507e-06
-1.13945e-06
-1.13753e-06
-1.1357e-06
-1.13935e-06
-1.15148e-06
-1.15011e-06
-1.14506e-06
-1.12795e-06
-1.14082e-06
-1.14082e-06
-1.14082e-06
-1.14083e-06
-1.14953e-06
-1.15054e-06
-1.13944e-06
-1.14082e-06
-1.14082e-06
-1.14082e-06
-1.14082e-06
-1.14082e-06
-1.14083e-06
-1.165e-06
-1.15976e-06
-1.14848e-06
-1.13753e-06
-1.14082e-06
-1.14082e-06
-1.14082e-06
-1.14082e-06
-1.14082e-06
-1.14082e-06
-1.1711e-06
-1.159e-06
-1.14915e-06
-1.1357e-06
-1.14082e-06
-1.14082e-06
-1.14082e-06
-1.14082e-06
-1.14082e-06
-1.14082e-06
-1.17146e-06
-1.15194e-06
-1.13935e-06
-1.14082e-06
-1.14082e-06
-1.14082e-06
-1.14082e-06
-1.14082e-06
-1.14083e-06
-1.16942e-06
-1.16631e-06
-1.15148e-06
-1.14954e-06
-1.14082e-06
-1.14082e-06
-1.14082e-06
-1.14083e-06
-1.18064e-06
-1.15997e-06
-1.15652e-06
-1.15011e-06
-1.15054e-06
-1.165e-06
-1.17111e-06
-1.17147e-06
-1.16944e-06
-1.16e-06
-1.167e-06
-1.15976e-06
-1.159e-06
-1.15194e-06
-1.16632e-06
-1.15652e-06
-1.1305e-06
-1.13117e-06
-1.12709e-06
-1.12146e-06
-1.11954e-06
-1.11771e-06
-1.12136e-06
-1.13349e-06
-1.13212e-06
-1.12708e-06
-1.10997e-06
-1.12284e-06
-1.12284e-06
-1.12284e-06
-1.12284e-06
-1.13155e-06
-1.13256e-06
-1.12146e-06
-1.12284e-06
-1.12284e-06
-1.12284e-06
-1.12284e-06
-1.12284e-06
-1.12284e-06
-1.14701e-06
-1.14177e-06
-1.1305e-06
-1.11955e-06
-1.12284e-06
-1.12284e-06
-1.12284e-06
-1.12284e-06
-1.12284e-06
-1.12284e-06
-1.15312e-06
-1.14102e-06
-1.13117e-06
-1.11771e-06
-1.12284e-06
-1.12284e-06
-1.12284e-06
-1.12284e-06
-1.12284e-06
-1.12284e-06
-1.15348e-06
-1.13395e-06
-1.12136e-06
-1.12284e-06
-1.12284e-06
-1.12284e-06
-1.12284e-06
-1.12284e-06
-1.12284e-06
-1.15143e-06
-1.14833e-06
-1.13349e-06
-1.13156e-06
-1.12284e-06
-1.12284e-06
-1.12284e-06
-1.12284e-06
-1.16265e-06
-1.14199e-06
-1.13853e-06
-1.13213e-06
-1.13255e-06
-1.14701e-06
-1.15312e-06
-1.15348e-06
-1.15146e-06
-1.14201e-06
-1.14902e-06
-1.14177e-06
-1.14102e-06
-1.13395e-06
-1.14833e-06
-1.13853e-06
-1.11251e-06
-1.11318e-06
-1.1091e-06
-1.10347e-06
-1.10156e-06
-1.09972e-06
-1.10338e-06
-1.11551e-06
-1.11414e-06
-1.10909e-06
-1.09198e-06
-1.10485e-06
-1.10485e-06
-1.10485e-06
-1.10485e-06
-1.11357e-06
-1.11457e-06
-1.10347e-06
-1.10485e-06
-1.10485e-06
-1.10485e-06
-1.10485e-06
-1.10485e-06
-1.10485e-06
-1.12902e-06
-1.12378e-06
-1.11251e-06