/*--------------------------------*- C++ -*----------------------------------*\
| =========                 |                                                 |
| \\      /  F ield         | OpenFOAM: The Open Source CFD Toolbox           |
|  \\    /   O peration     | Version:  v2012                                 |
|   \\  /    A nd           | Website:  www.openfoam.com                      |
|    \\/     M anipulation  |                                                 |
\*---------------------------------------------------------------------------*/
FoamFile
{
    version     2.0;
    format      ascii;
    class       volScalarField;
    location    "0.22";
    object      p;
}
// * * * * * * * * * * * * * * * * * * * * * * * * * * * * * * * * * * * * * //

dimensions      [0 2 -2 0 0 0 0];


internalField   nonuniform List<scalar> 
189320
(
-5.59726e-08
-5.36717e-08
-6.40716e-08
-6.46014e-08
-6.88565e-08
-7.02205e-08
-6.67529e-08
-6.57221e-08
-6.73497e-08
-6.41106e-08
-7.01131e-08
-6.98624e-08
-7.13975e-08
-7.17625e-08
-7.06065e-08
-6.98778e-08
-6.61197e-08
-6.46457e-08
-6.98777e-08
-7.22272e-08
-7.32523e-08
-7.34546e-08
-7.27744e-08
-7.10973e-08
-6.99505e-08
-6.45032e-08
-5.62159e-08
-6.88778e-08
-7.14101e-08
-7.32565e-08
-7.39671e-08
-7.4084e-08
-7.36888e-08
-7.24832e-08
-6.97221e-08
-6.42452e-08
-5.38398e-08
-7.02637e-08
-7.17774e-08
-7.3457e-08
-7.40812e-08
-7.41898e-08
-7.38559e-08
-7.28213e-08
-7.01223e-08
-6.67477e-08
-6.67808e-08
-7.06135e-08
-7.27704e-08
-7.36821e-08
-7.38517e-08
-7.3306e-08
-7.18663e-08
-6.96843e-08
-5.44015e-08
-6.57377e-08
-6.98689e-08
-7.10781e-08
-7.24603e-08
-7.28027e-08
-7.1856e-08
-6.98978e-08
-7.00525e-08
-6.47337e-08
-6.7344e-08
-6.60825e-08
-6.98898e-08
-6.96711e-08
-7.00808e-08
-6.96582e-08
-7.00353e-08
-7.10454e-08
-6.44197e-08
-6.41174e-08
-6.66431e-08
-5.43438e-08
-6.46925e-08
-7.55984e-08
-7.58067e-08
-7.34856e-08
-7.33025e-08
-7.31504e-08
-7.3081e-08
-7.33122e-08
-7.66942e-08
-7.5813e-08
-7.34848e-08
-6.9415e-08
-7.85142e-08
-7.95749e-08
-7.95701e-08
-7.85304e-08
-7.7771e-08
-7.88792e-08
-7.33004e-08
-7.85818e-08
-8.2145e-08
-8.17872e-08
-8.17928e-08
-8.21285e-08
-7.85111e-08
-8.5539e-08
-8.13609e-08
-7.56062e-08
-7.31304e-08
-7.95881e-08
-8.18058e-08
-8.157e-08
-8.15696e-08
-8.17889e-08
-7.95936e-08
-8.58113e-08
-8.17732e-08
-7.58141e-08
-7.30706e-08
-7.95752e-08
-8.18092e-08
-8.15776e-08
-8.1571e-08
-8.17834e-08
-7.95788e-08
-8.60238e-08
-7.93158e-08
-7.33093e-08
-7.85404e-08
-8.21681e-08
-8.18055e-08
-8.18023e-08
-8.21236e-08
-7.85006e-08
-8.61897e-08
-8.52124e-08
-7.66792e-08
-7.77761e-08
-7.86311e-08
-7.95957e-08
-7.95761e-08
-7.85292e-08
-9.37969e-08
-8.3557e-08
-7.90098e-08
-7.57901e-08
-7.88384e-08
-8.53541e-08
-8.56051e-08
-8.59635e-08
-8.61617e-08
-8.36755e-08
-8.51066e-08
-8.12379e-08
-8.16382e-08
-7.92566e-08
-8.51883e-08
-7.90203e-08
-7.55361e-08
-7.60542e-08
-7.34245e-08
-7.26559e-08
-7.20117e-08
-7.1536e-08
-7.2808e-08
-7.66815e-08
-7.60766e-08
-7.34304e-08
-6.79715e-08
-7.69374e-08
-7.71618e-08
-7.71646e-08
-7.69403e-08
-7.73649e-08
-7.83293e-08
-7.26588e-08
-7.69402e-08
-7.88557e-08
-7.89349e-08
-7.89444e-08
-7.88539e-08
-7.69373e-08
-8.59396e-08
-8.17853e-08
-7.55396e-08
-7.20132e-08
-7.71609e-08
-7.89427e-08
-7.89436e-08
-7.89505e-08
-7.89408e-08
-7.71699e-08
-8.8692e-08
-8.14236e-08
-7.6055e-08
-7.1535e-08
-7.71581e-08
-7.89466e-08
-7.89503e-08
-7.89502e-08
-7.89391e-08
-7.7167e-08
-8.88195e-08
-7.9523e-08
-7.28126e-08
-7.69426e-08
-7.88589e-08
-7.89406e-08
-7.89484e-08
-7.88554e-08
-7.69357e-08
-8.81892e-08
-8.55662e-08
-7.66773e-08
-7.7369e-08
-7.69361e-08
-7.71642e-08
-7.71661e-08
-7.69384e-08
-9.38583e-08
-8.36495e-08
-7.99987e-08
-7.60797e-08
-7.83332e-08
-8.59283e-08
-8.86801e-08
-8.8813e-08
-8.81821e-08
-8.36616e-08
-8.56665e-08
-8.17817e-08
-8.14196e-08
-7.95193e-08
-8.55623e-08
-8.00029e-08
-7.47666e-08
-7.52898e-08
-7.26923e-08
-7.16913e-08
-7.09448e-08
-7.03577e-08
-7.19143e-08
-7.58682e-08
-7.53861e-08
-7.26871e-08
-6.67085e-08
-7.57753e-08
-7.5831e-08
-7.58332e-08
-7.57787e-08
-7.66736e-08
-7.76322e-08
-7.17076e-08
-7.57771e-08
-7.64789e-08
-7.65381e-08
-7.6545e-08
-7.64797e-08
-7.57754e-08
-8.52659e-08
-8.10596e-08
-7.47677e-08
-7.09462e-08
-7.58263e-08
-7.65421e-08
-7.65813e-08
-7.65858e-08
-7.65432e-08
-7.58352e-08
-8.83908e-08
-8.07194e-08
-7.52887e-08
-7.03565e-08
-7.58287e-08
-7.65469e-08
-7.65873e-08
-7.65877e-08
-7.65423e-08
-7.58324e-08
-8.85039e-08
-7.87742e-08
-7.19141e-08
-7.57753e-08
-7.64825e-08
-7.6543e-08
-7.65484e-08
-7.6481e-08
-7.57803e-08
-8.78013e-08
-8.48756e-08
-7.58694e-08
-7.6675e-08
-7.57762e-08
-7.58288e-08
-7.58317e-08
-7.57791e-08
-9.35463e-08
-8.27679e-08
-7.93451e-08
-7.53925e-08
-7.76393e-08
-8.52637e-08
-8.83899e-08
-8.85106e-08
-8.78266e-08
-8.27921e-08
-8.5031e-08
-8.1057e-08
-8.0728e-08
-7.87733e-08
-8.4887e-08
-7.93565e-08
-7.36729e-08
-7.41978e-08
-7.16231e-08
-7.05596e-08
-6.97073e-08
-6.91081e-08
-7.08201e-08
-7.47947e-08
-7.43326e-08
-7.16311e-08
-6.54604e-08
-7.45715e-08
-7.45848e-08
-7.45834e-08
-7.45694e-08
-7.56321e-08
-7.65847e-08
-7.05711e-08
-7.45692e-08
-7.48222e-08
-7.48437e-08
-7.48462e-08
-7.48229e-08
-7.45721e-08
-8.42073e-08
-7.99934e-08
-7.36776e-08
-6.97078e-08
-7.45832e-08
-7.48435e-08
-7.48578e-08
-7.4861e-08
-7.48445e-08
-7.45855e-08
-8.73908e-08
-7.96357e-08
-7.41984e-08
-6.91112e-08
-7.4583e-08
-7.48434e-08
-7.486e-08
-7.4862e-08
-7.48434e-08
-7.45844e-08
-8.74735e-08
-7.76733e-08
-7.08183e-08
-7.45694e-08
-7.48219e-08
-7.48436e-08
-7.48468e-08
-7.48232e-08
-7.45695e-08
-8.66675e-08
-8.38209e-08
-7.4792e-08
-7.56279e-08
-7.45695e-08
-7.45826e-08
-7.45831e-08
-7.45698e-08
-9.25872e-08
-8.16793e-08
-7.83157e-08
-7.43408e-08
-7.65924e-08
-8.42085e-08
-8.73916e-08
-8.74817e-08
-8.66805e-08
-8.16961e-08
-8.39937e-08
-7.99957e-08
-7.96459e-08
-7.76836e-08
-8.38249e-08
-7.83184e-08
-7.24691e-08
-7.2991e-08
-7.04298e-08
-6.93468e-08
-6.84515e-08
-6.78494e-08
-6.96111e-08
-7.35949e-08
-7.31552e-08
-7.04326e-08
-6.4194e-08
-7.3328e-08
-7.33311e-08
-7.33309e-08
-7.33286e-08
-7.44411e-08
-7.54063e-08
-6.93501e-08
-7.33315e-08
-7.34213e-08
-7.34309e-08
-7.34305e-08
-7.34214e-08
-7.33307e-08
-8.30073e-08
-7.87888e-08
-7.24727e-08
-6.84484e-08
-7.33325e-08
-7.34306e-08
-7.34347e-08
-7.3434e-08
-7.34308e-08
-7.33327e-08
-8.62063e-08
-7.84412e-08
-7.29944e-08
-6.78504e-08
-7.33307e-08
-7.34304e-08
-7.34347e-08
-7.34337e-08
-7.34297e-08
-7.33327e-08
-8.62837e-08
-7.64713e-08
-6.96136e-08
-7.33295e-08
-7.3421e-08
-7.34306e-08
-7.34304e-08
-7.34204e-08
-7.33303e-08
-8.54434e-08
-8.2627e-08
-7.36013e-08
-7.44467e-08
-7.333e-08
-7.33316e-08
-7.33331e-08
-7.33309e-08
-9.14383e-08
-8.04827e-08
-7.71277e-08
-7.31569e-08
-7.54049e-08
-8.30072e-08
-8.62085e-08
-8.6291e-08
-8.54577e-08
-8.0501e-08
-8.28246e-08
-7.88016e-08
-7.84434e-08
-7.64773e-08
-8.26313e-08
-7.71327e-08
-7.12283e-08
-7.17515e-08
-6.91997e-08
-6.80924e-08
-6.71753e-08
-6.65865e-08
-6.83803e-08
-7.23594e-08
-7.19225e-08
-6.92006e-08
-6.29367e-08
-7.20832e-08
-7.20747e-08
-7.20763e-08
-7.20826e-08
-7.32088e-08
-7.41758e-08
-6.81006e-08
-7.2079e-08
-7.21121e-08
-7.21142e-08
-7.21142e-08
-7.21112e-08
-7.20759e-08
-8.17729e-08
-7.75616e-08
-7.12328e-08
-6.7178e-08
-7.20752e-08
-7.21157e-08
-7.21167e-08
-7.21162e-08
-7.21157e-08
-7.20784e-08
-8.49732e-08
-7.72047e-08
-7.17534e-08
-6.65908e-08
-7.2078e-08
-7.21165e-08
-7.21178e-08
-7.21162e-08
-7.21156e-08
-7.20782e-08
-8.5043e-08
-7.52328e-08
-6.83852e-08
-7.20788e-08
-7.21118e-08
-7.21152e-08
-7.21143e-08
-7.21107e-08
-7.20791e-08
-8.42013e-08
-8.13997e-08
-7.23655e-08
-7.32128e-08
-7.20806e-08
-7.20796e-08
-7.20801e-08
-7.20806e-08
-9.0221e-08
-7.92484e-08
-7.59031e-08
-7.19245e-08
-7.41767e-08
-8.17724e-08
-8.49757e-08
-8.50424e-08
-8.42077e-08
-7.9259e-08
-8.15929e-08
-7.75748e-08
-7.72043e-08
-7.52328e-08
-8.14035e-08
-7.58999e-08
-6.99774e-08
-7.05e-08
-6.7949e-08
-6.68414e-08
-6.59176e-08
-6.53339e-08
-6.71345e-08
-7.11114e-08
-7.06766e-08
-6.79504e-08
-6.16771e-08
-7.08247e-08
-7.08277e-08
-7.08278e-08
-7.08245e-08
-7.19604e-08
-7.29278e-08
-6.68476e-08
-7.08277e-08
-7.08364e-08
-7.08381e-08
-7.08387e-08
-7.0834e-08
-7.0826e-08
-8.05178e-08
-7.63119e-08
-6.99818e-08
-6.59194e-08
-7.08281e-08
-7.08375e-08
-7.08394e-08
-7.08403e-08
-7.08365e-08
-7.08264e-08
-8.37191e-08
-7.59527e-08
-7.05025e-08
-6.53354e-08
-7.08273e-08
-7.08385e-08
-7.08393e-08
-7.08401e-08
-7.08373e-08
-7.08259e-08
-8.37867e-08
-7.39798e-08
-6.71375e-08
-7.08264e-08
-7.08359e-08
-7.08373e-08
-7.08378e-08
-7.08361e-08
-7.08255e-08
-8.2939e-08
-8.01509e-08
-7.11174e-08
-7.19643e-08
-7.08267e-08
-7.0828e-08
-7.08271e-08
-7.08249e-08
-8.89809e-08
-7.80031e-08
-7.46553e-08
-7.06767e-08
-7.29286e-08
-8.05215e-08
-8.37247e-08
-8.37925e-08
-8.29529e-08
-7.80137e-08
-8.0346e-08
-7.63239e-08
-7.59553e-08
-7.39804e-08
-8.0155e-08
-7.46574e-08
-6.87274e-08
-6.92489e-08
-6.66955e-08
-6.55928e-08
-6.46644e-08
-6.40782e-08
-6.58811e-08
-6.98595e-08
-6.94262e-08
-6.66973e-08
-6.04178e-08
-6.95715e-08
-6.95711e-08
-6.95709e-08
-6.95699e-08
-7.07101e-08
-7.16788e-08
-6.55932e-08
-6.95687e-08
-6.95776e-08
-6.95787e-08
-6.95782e-08
-6.9577e-08
-6.95742e-08
-7.92691e-08
-7.50613e-08
-6.8729e-08
-6.46636e-08
-6.95716e-08
-6.95795e-08
-6.95791e-08
-6.95788e-08
-6.9577e-08
-6.95737e-08
-8.24715e-08
-7.47017e-08
-6.92501e-08
-6.40783e-08
-6.95709e-08
-6.95763e-08
-6.95762e-08
-6.95781e-08
-6.95773e-08
-6.9573e-08
-8.25366e-08
-7.27297e-08
-6.58849e-08
-6.95735e-08
-6.95805e-08
-6.95818e-08
-6.95797e-08
-6.9578e-08
-6.95709e-08
-8.1687e-08
-7.8898e-08
-6.98639e-08
-7.07141e-08
-6.95681e-08
-6.95691e-08
-6.95702e-08
-6.95685e-08
-8.77282e-08
-7.67509e-08
-7.34026e-08
-6.94238e-08
-7.1677e-08
-7.92696e-08
-8.24742e-08
-8.2541e-08
-8.17012e-08
-7.67616e-08
-7.90968e-08
-7.50704e-08
-7.4702e-08
-7.27284e-08
-7.89016e-08
-7.34031e-08
-6.74746e-08
-6.79965e-08
-6.54419e-08
-6.43379e-08
-6.34078e-08
-6.28232e-08
-6.46303e-08
-6.86083e-08
-6.81745e-08
-6.54437e-08
-5.91625e-08
-6.83174e-08
-6.83174e-08
-6.83179e-08
-6.83183e-08
-6.94592e-08
-7.04268e-08
-6.4338e-08
-6.83177e-08
-6.83209e-08
-6.83216e-08
-6.83205e-08
-6.83201e-08
-6.83183e-08
-7.80167e-08
-7.38095e-08
-6.74754e-08
-6.34075e-08
-6.83172e-08
-6.83183e-08
-6.83206e-08
-6.83187e-08
-6.83208e-08
-6.83177e-08
-8.12186e-08
-7.34494e-08
-6.79965e-08
-6.28228e-08
-6.83177e-08
-6.83213e-08
-6.83217e-08
-6.83196e-08
-6.83232e-08
-6.83183e-08
-8.12832e-08
-7.14767e-08
-6.46325e-08
-6.83156e-08
-6.83196e-08
-6.83199e-08
-6.83193e-08
-6.83202e-08
-6.8316e-08
-8.04338e-08
-7.76471e-08
-6.86113e-08
-6.94646e-08
-6.83178e-08
-6.83178e-08
-6.83177e-08
-6.8318e-08
-8.64759e-08
-7.54997e-08
-7.21517e-08
-6.81719e-08
-7.04255e-08
-7.80174e-08
-8.12253e-08
-8.12884e-08
-8.04484e-08
-7.55102e-08
-7.78458e-08
-7.38189e-08
-7.34499e-08
-7.14761e-08
-7.76513e-08
-7.2153e-08
-6.6218e-08
-6.6741e-08
-6.41914e-08
-6.30735e-08
-6.21502e-08
-6.15682e-08
-6.33767e-08
-6.73517e-08
-6.69208e-08
-6.41921e-08
-5.7915e-08
-6.70642e-08
-6.70644e-08
-6.70647e-08
-6.7065e-08
-6.82053e-08
-6.91737e-08
-6.30852e-08
-6.70645e-08
-6.70632e-08
-6.70641e-08
-6.70641e-08
-6.70635e-08
-6.70652e-08
-7.67613e-08
-7.2555e-08
-6.62213e-08
-6.21528e-08
-6.70638e-08
-6.70641e-08
-6.70643e-08
-6.70645e-08
-6.70644e-08
-6.70645e-08
-7.9963e-08
-7.21949e-08
-6.67421e-08
-6.1569e-08
-6.7064e-08
-6.70642e-08
-6.70644e-08
-6.70645e-08
-6.70645e-08
-6.70644e-08
-8.00268e-08
-7.02209e-08
-6.33795e-08
-6.70642e-08
-6.70637e-08
-6.7064e-08
-6.70643e-08
-6.70636e-08
-6.70649e-08
-7.91785e-08
-7.6393e-08
-6.73566e-08
-6.82107e-08
-6.70647e-08
-6.7064e-08
-6.70642e-08
-6.70648e-08
-8.52207e-08
-7.42444e-08
-7.08977e-08
-6.69184e-08
-6.91721e-08
-7.67628e-08
-7.99708e-08
-8.00337e-08
-7.91928e-08
-7.42549e-08
-7.65911e-08
-7.25648e-08
-7.2196e-08
-7.02217e-08
-7.63973e-08
-7.08989e-08
-6.49647e-08
-6.54875e-08
-6.29426e-08
-6.18192e-08
-6.08967e-08
-6.03148e-08
-6.21257e-08
-6.61008e-08
-6.56663e-08
-6.29371e-08
-5.66593e-08
-6.58097e-08
-6.58095e-08
-6.58098e-08
-6.581e-08
-6.69535e-08
-6.79186e-08
-6.18303e-08
-6.58098e-08
-6.58098e-08
-6.58098e-08
-6.58099e-08
-6.58097e-08
-6.58101e-08
-7.55069e-08
-7.13007e-08
-6.49667e-08
-6.08976e-08
-6.58094e-08
-6.58098e-08
-6.58097e-08
-6.58099e-08
-6.581e-08
-6.58098e-08
-7.87069e-08
-7.09401e-08
-6.54877e-08
-6.03134e-08
-6.58093e-08
-6.58098e-08
-6.58098e-08
-6.58099e-08
-6.581e-08
-6.58097e-08
-7.87717e-08
-6.89663e-08
-6.21257e-08
-6.58096e-08
-6.58098e-08
-6.58099e-08
-6.581e-08
-6.58099e-08
-6.581e-08
-7.79246e-08
-7.51387e-08
-6.61029e-08
-6.69572e-08
-6.581e-08
-6.58102e-08
-6.58102e-08
-6.581e-08
-8.39675e-08
-7.29909e-08
-6.96434e-08
-6.56644e-08
-6.79184e-08
-7.55093e-08
-7.87151e-08
-7.87789e-08
-7.79391e-08
-7.30013e-08
-7.53374e-08
-7.1311e-08
-7.09414e-08
-6.89672e-08
-7.5143e-08
-6.96448e-08
-6.37098e-08
-6.42333e-08
-6.16845e-08
-6.0565e-08
-5.96418e-08
-5.90605e-08
-6.08728e-08
-6.48498e-08
-6.44086e-08
-6.16828e-08
-5.54033e-08
-6.45549e-08
-6.45549e-08
-6.4555e-08
-6.45552e-08
-6.57e-08
-6.66619e-08
-6.0576e-08
-6.4555e-08
-6.45557e-08
-6.45556e-08
-6.45557e-08
-6.45557e-08
-6.45552e-08
-7.42519e-08
-7.00456e-08
-6.37125e-08
-5.96432e-08
-6.4555e-08
-6.45556e-08
-6.45551e-08
-6.45552e-08
-6.45557e-08
-6.45551e-08
-7.74526e-08
-6.96853e-08
-6.42335e-08
-5.9059e-08
-6.45548e-08
-6.45557e-08
-6.45559e-08
-6.4556e-08
-6.45557e-08
-6.45551e-08
-7.75176e-08
-6.77118e-08
-6.08715e-08
-6.45551e-08
-6.45557e-08
-6.45551e-08
-6.45551e-08
-6.45558e-08
-6.45553e-08
-7.66704e-08
-7.38844e-08
-6.48488e-08
-6.57028e-08
-6.45554e-08
-6.45552e-08
-6.45552e-08
-6.45554e-08
-8.27134e-08
-7.17368e-08
-6.83892e-08
-6.44103e-08
-6.66643e-08
-7.42554e-08
-7.74619e-08
-7.75271e-08
-7.66854e-08
-7.17473e-08
-7.40832e-08
-7.00569e-08
-6.96874e-08
-6.77138e-08
-7.38892e-08
-6.83908e-08
-6.24563e-08
-6.29791e-08
-6.04328e-08
-5.93107e-08
-5.83882e-08
-5.78064e-08
-5.96183e-08
-6.3595e-08
-6.3154e-08
-6.04288e-08
-5.41494e-08
-6.33009e-08
-6.33009e-08
-6.33008e-08
-6.33007e-08
-6.44455e-08
-6.54073e-08
-5.93219e-08
-6.33009e-08
-6.33009e-08
-6.33009e-08
-6.33009e-08
-6.33008e-08
-6.3301e-08
-7.29971e-08
-6.87909e-08
-6.24583e-08
-5.83891e-08
-6.33008e-08
-6.33009e-08
-6.3301e-08
-6.3301e-08
-6.33011e-08
-6.3301e-08
-7.61977e-08
-6.84307e-08
-6.29792e-08
-5.78049e-08
-6.33008e-08
-6.3301e-08
-6.3301e-08
-6.3301e-08
-6.33009e-08
-6.33009e-08
-7.62628e-08
-6.64571e-08
-5.96172e-08
-6.3301e-08
-6.33011e-08
-6.33011e-08
-6.33011e-08
-6.33011e-08
-6.3301e-08
-7.54157e-08
-7.26297e-08
-6.35943e-08
-6.44486e-08
-6.33013e-08
-6.33012e-08
-6.33011e-08
-6.33012e-08
-8.1459e-08
-7.04822e-08
-6.71345e-08
-6.31559e-08
-6.541e-08
-7.30009e-08
-7.62076e-08
-7.62726e-08
-7.54308e-08
-7.04929e-08
-7.28287e-08
-6.88029e-08
-6.84335e-08
-6.64595e-08
-7.26348e-08
-6.71365e-08
-6.12015e-08
-6.17242e-08
-5.91779e-08
-5.80564e-08
-5.71333e-08
-5.65518e-08
-5.83641e-08
-6.23389e-08
-6.18982e-08
-5.91741e-08
-5.28948e-08
-6.20464e-08
-6.20464e-08
-6.20464e-08
-6.20463e-08
-6.31906e-08
-6.41524e-08
-5.80673e-08
-6.20463e-08
-6.20464e-08
-6.20465e-08
-6.20465e-08
-6.20465e-08
-6.20464e-08
-7.17423e-08
-6.75363e-08
-6.12039e-08
-5.71346e-08
-6.20463e-08
-6.20464e-08
-6.20465e-08
-6.20465e-08
-6.20465e-08
-6.20465e-08
-7.49431e-08
-6.71761e-08
-6.17247e-08
-5.65504e-08
-6.20465e-08
-6.20465e-08
-6.20465e-08
-6.20465e-08
-6.20465e-08
-6.20465e-08
-7.50082e-08
-6.52025e-08
-5.83628e-08
-6.20465e-08
-6.20465e-08
-6.20466e-08
-6.20465e-08
-6.20465e-08
-6.20465e-08
-7.4161e-08
-7.13751e-08
-6.23399e-08
-6.31941e-08
-6.20468e-08
-6.20467e-08
-6.20467e-08
-6.20466e-08
-8.02044e-08
-6.92276e-08
-6.58799e-08
-6.19016e-08
-6.41556e-08
-7.17464e-08
-7.49529e-08
-7.5018e-08
-7.41761e-08
-6.92382e-08
-7.1574e-08
-6.75484e-08
-6.7179e-08
-6.52049e-08
-7.13802e-08
-6.58818e-08
-5.99479e-08
-6.04704e-08
-5.79237e-08
-5.68024e-08
-5.58794e-08
-5.52979e-08
-5.71102e-08
-6.10862e-08
-6.06454e-08
-5.79199e-08
-5.16421e-08
-6.07925e-08
-6.07924e-08
-6.07923e-08
-6.07923e-08
-6.19369e-08
-6.28987e-08
-5.6813e-08
-6.07922e-08
-6.07924e-08
-6.07924e-08
-6.07924e-08
-6.07924e-08
-6.07924e-08
-7.04886e-08
-6.62826e-08
-5.99495e-08
-5.58804e-08
-6.07924e-08
-6.07923e-08
-6.07924e-08
-6.07924e-08
-6.07925e-08
-6.07925e-08
-7.36893e-08
-6.59223e-08
-6.04704e-08
-5.52962e-08
-6.07923e-08
-6.07924e-08
-6.07925e-08
-6.07925e-08
-6.07925e-08
-6.07925e-08
-7.37543e-08
-6.39487e-08
-5.71084e-08
-6.07923e-08
-6.07923e-08
-6.07925e-08
-6.07925e-08
-6.07925e-08
-6.07926e-08
-7.29072e-08
-7.01212e-08
-6.10856e-08
-6.194e-08
-6.07927e-08
-6.07926e-08
-6.07924e-08
-6.07926e-08
-7.89505e-08
-6.79737e-08
-6.4626e-08
-6.06475e-08
-6.29015e-08
-7.04925e-08
-7.36991e-08
-7.37647e-08
-7.29226e-08
-6.79843e-08
-7.03201e-08
-6.62943e-08
-6.59252e-08
-6.39504e-08
-7.01261e-08
-6.46278e-08
-5.86938e-08
-5.92164e-08
-5.66704e-08
-5.55478e-08
-5.46252e-08
-5.40439e-08
-5.58563e-08
-5.98298e-08
-5.93913e-08
-5.66662e-08
-5.0388e-08
-5.95382e-08
-5.95379e-08
-5.95379e-08
-5.95383e-08
-6.06828e-08
-6.16447e-08
-5.55592e-08
-5.95382e-08
-5.95382e-08
-5.95382e-08
-5.95383e-08
-5.95383e-08
-5.95385e-08
-6.92346e-08
-6.50286e-08
-5.86955e-08
-5.46264e-08
-5.95383e-08
-5.95383e-08
-5.95384e-08
-5.95385e-08
-5.95385e-08
-5.95386e-08
-7.24353e-08
-6.46684e-08
-5.92164e-08
-5.40422e-08
-5.95382e-08
-5.95383e-08
-5.95383e-08
-5.95384e-08
-5.95385e-08
-5.95386e-08
-7.25004e-08
-6.26949e-08
-5.58544e-08
-5.95383e-08
-5.95384e-08
-5.95385e-08
-5.95385e-08
-5.95385e-08
-5.95387e-08
-7.16532e-08
-6.88674e-08
-5.98315e-08
-6.06858e-08
-5.95386e-08
-5.95386e-08
-5.95386e-08
-5.95386e-08
-7.76965e-08
-6.67197e-08
-6.33721e-08
-5.93932e-08
-6.16473e-08
-6.92383e-08
-7.2445e-08
-7.25099e-08
-7.16679e-08
-6.67302e-08
-6.90661e-08
-6.50401e-08
-6.46706e-08
-6.2696e-08
-6.88727e-08
-6.33738e-08
-5.74397e-08
-5.79622e-08
-5.54166e-08
-5.42942e-08
-5.33711e-08
-5.27897e-08
-5.46022e-08
-5.85762e-08
-5.8137e-08
-5.54122e-08
-4.91338e-08
-5.82843e-08
-5.82843e-08
-5.82843e-08
-5.82843e-08
-5.94289e-08
-6.03903e-08
-5.43051e-08
-5.82842e-08
-5.82842e-08
-5.82843e-08
-5.82843e-08
-5.82843e-08
-5.82845e-08
-6.79821e-08
-6.37744e-08
-5.74415e-08
-5.33723e-08
-5.82842e-08
-5.82842e-08
-5.82843e-08
-5.82843e-08
-5.82843e-08
-5.82845e-08
-7.11812e-08
-6.34145e-08
-5.79624e-08
-5.27882e-08
-5.82842e-08
-5.82842e-08
-5.82843e-08
-5.82844e-08
-5.82844e-08
-5.82845e-08
-7.12464e-08
-6.1441e-08
-5.46005e-08
-5.82842e-08
-5.82843e-08
-5.82844e-08
-5.82844e-08
-5.82844e-08
-5.82845e-08
-7.03992e-08
-6.76134e-08
-5.85776e-08
-5.94319e-08
-5.82846e-08
-5.82845e-08
-5.82845e-08
-5.82845e-08
-7.64424e-08
-6.54657e-08
-6.21181e-08
-5.81395e-08
-6.03935e-08
-6.79841e-08
-7.11898e-08
-7.12535e-08
-7.04136e-08
-6.54761e-08
-6.7812e-08
-6.37861e-08
-6.34166e-08
-6.14418e-08
-6.76184e-08
-6.21196e-08
-5.61854e-08
-5.67078e-08
-5.41618e-08
-5.30395e-08
-5.21167e-08
-5.15353e-08
-5.33475e-08
-5.73237e-08
-5.68826e-08
-5.41576e-08
-4.78792e-08
-5.70298e-08
-5.70299e-08
-5.703e-08
-5.70301e-08
-5.81746e-08
-5.91359e-08
-5.30506e-08
-5.70298e-08
-5.70298e-08
-5.70299e-08
-5.703e-08
-5.70299e-08
-5.703e-08
-6.67276e-08
-6.252e-08
-5.61871e-08
-5.21179e-08
-5.70298e-08
-5.70299e-08
-5.703e-08
-5.703e-08
-5.703e-08
-5.70301e-08
-6.99267e-08
-6.21598e-08
-5.6708e-08
-5.15338e-08
-5.70299e-08
-5.703e-08
-5.70301e-08
-5.70302e-08
-5.70301e-08
-5.70302e-08
-6.9992e-08
-6.01864e-08
-5.33461e-08
-5.703e-08
-5.703e-08
-5.703e-08
-5.703e-08
-5.70299e-08
-5.70302e-08
-6.91449e-08
-6.6359e-08
-5.73234e-08
-5.81778e-08
-5.70304e-08
-5.70302e-08
-5.70304e-08
-5.70304e-08
-7.51885e-08
-6.42116e-08
-6.08639e-08
-5.68855e-08
-5.91395e-08
-6.67304e-08
-6.99367e-08
-7.00015e-08
-6.916e-08
-6.42222e-08
-6.65581e-08
-6.25325e-08
-6.2163e-08
-6.01902e-08
-6.63648e-08
-6.0866e-08
-5.49307e-08
-5.54533e-08
-5.29072e-08
-5.17849e-08
-5.08621e-08
-5.02807e-08
-5.20934e-08
-5.60699e-08
-5.56278e-08
-5.29031e-08
-4.66247e-08
-5.57754e-08
-5.57754e-08
-5.57755e-08
-5.57756e-08
-5.69203e-08
-5.78815e-08
-5.17962e-08
-5.57755e-08
-5.57754e-08
-5.57755e-08
-5.57755e-08
-5.57755e-08
-5.57757e-08
-6.54733e-08
-6.12661e-08
-5.49328e-08
-5.08636e-08
-5.57755e-08
-5.57755e-08
-5.57756e-08
-5.57756e-08
-5.57757e-08
-5.57757e-08
-6.86724e-08
-6.09055e-08
-5.54539e-08
-5.02796e-08
-5.57756e-08
-5.57756e-08
-5.57757e-08
-5.57757e-08
-5.57757e-08
-5.57758e-08
-6.87377e-08
-5.89321e-08
-5.20921e-08
-5.57757e-08
-5.57757e-08
-5.57758e-08
-5.57758e-08
-5.57758e-08
-5.57759e-08
-6.78907e-08
-6.51048e-08
-5.60693e-08
-5.69235e-08
-5.5776e-08
-5.57759e-08
-5.5776e-08
-5.5776e-08
-7.3934e-08
-6.29572e-08
-5.96096e-08
-5.5631e-08
-5.78849e-08
-6.54754e-08
-6.86793e-08
-6.87441e-08
-6.79049e-08
-6.29676e-08
-6.53037e-08
-6.12778e-08
-6.09082e-08
-5.89341e-08
-6.51119e-08
-5.96113e-08
-5.36761e-08
-5.41983e-08
-5.1653e-08
-5.05306e-08
-4.96076e-08
-4.90257e-08
-5.08358e-08
-5.48136e-08
-5.43758e-08
-5.1649e-08
-4.53704e-08
-5.4521e-08
-5.4521e-08
-5.45211e-08
-5.45212e-08
-5.56643e-08
-5.66291e-08
-5.0542e-08
-5.45211e-08
-5.4521e-08
-5.4521e-08
-5.45211e-08
-5.45211e-08
-5.45215e-08
-6.42195e-08
-6.00124e-08
-5.36786e-08
-4.96094e-08
-5.45211e-08
-5.4521e-08
-5.45211e-08
-5.45212e-08
-5.45212e-08
-5.45214e-08
-6.74183e-08
-5.96515e-08
-5.41995e-08
-4.90251e-08
-5.45211e-08
-5.45211e-08
-5.45212e-08
-5.45213e-08
-5.45213e-08
-5.45214e-08
-6.74833e-08
-5.76778e-08
-5.08375e-08
-5.45212e-08
-5.45211e-08
-5.45213e-08
-5.45213e-08
-5.45213e-08
-5.45215e-08
-6.66362e-08
-6.38503e-08
-5.48146e-08
-5.56688e-08
-5.45215e-08
-5.45214e-08
-5.45214e-08
-5.45215e-08
-7.26795e-08
-6.17027e-08
-5.83552e-08
-5.43762e-08
-5.66302e-08
-6.42208e-08
-6.74251e-08
-6.74904e-08
-6.66514e-08
-6.17134e-08
-6.40493e-08
-6.0023e-08
-5.96537e-08
-5.768e-08
-6.38569e-08
-5.83569e-08
-5.24217e-08
-5.29439e-08
-5.03992e-08
-4.92777e-08
-4.83529e-08
-4.77712e-08
-4.95813e-08
-5.35599e-08
-5.31231e-08
-5.03943e-08
-4.41158e-08
-5.32663e-08
-5.32664e-08
-5.32665e-08
-5.32666e-08
-5.44097e-08
-5.53752e-08
-4.92874e-08
-5.32664e-08
-5.32666e-08
-5.32666e-08
-5.32667e-08
-5.32667e-08
-5.3267e-08
-6.29653e-08
-5.87581e-08
-5.24241e-08
-4.83548e-08
-5.32665e-08
-5.32665e-08
-5.32666e-08
-5.32667e-08
-5.32668e-08
-5.32669e-08
-6.61639e-08
-5.83972e-08
-5.29449e-08
-4.77705e-08
-5.32665e-08
-5.32666e-08
-5.32667e-08
-5.32667e-08
-5.32667e-08
-5.32668e-08
-6.62288e-08
-5.64233e-08
-4.95828e-08
-5.32665e-08
-5.32666e-08
-5.32667e-08
-5.32667e-08
-5.32667e-08
-5.32668e-08
-6.53815e-08
-6.25957e-08
-5.35599e-08
-5.44141e-08
-5.32668e-08
-5.32668e-08
-5.32668e-08
-5.32668e-08
-7.14247e-08
-6.04479e-08
-5.71004e-08
-5.31215e-08
-5.53755e-08
-6.29663e-08
-6.61709e-08
-6.62357e-08
-6.53966e-08
-6.04585e-08
-6.27943e-08
-5.87686e-08
-5.83993e-08
-5.64259e-08
-6.26022e-08
-5.71004e-08
-5.11674e-08
-5.16894e-08
-4.91447e-08
-4.80238e-08
-4.70987e-08
-4.65169e-08
-4.83267e-08
-5.2305e-08
-5.18687e-08
-4.91398e-08
-4.28617e-08
-5.20124e-08
-5.20124e-08
-5.20124e-08
-5.20124e-08
-5.31548e-08
-5.41208e-08
-4.8033e-08
-5.20123e-08
-5.20124e-08
-5.20124e-08
-5.20125e-08
-5.20125e-08
-5.20126e-08
-6.17108e-08
-5.75035e-08
-5.11694e-08
-4.71004e-08
-5.20123e-08
-5.20124e-08
-5.20125e-08
-5.20125e-08
-5.20125e-08
-5.20126e-08
-6.49095e-08
-5.71426e-08
-5.16903e-08
-4.65161e-08
-5.20123e-08
-5.20124e-08
-5.20125e-08
-5.20125e-08
-5.20125e-08
-5.20126e-08
-6.49744e-08
-5.51688e-08
-4.83284e-08
-5.20123e-08
-5.20124e-08
-5.20125e-08
-5.20125e-08
-5.20125e-08
-5.20125e-08
-6.41271e-08
-6.13411e-08
-5.23055e-08
-5.31598e-08
-5.20125e-08
-5.20125e-08
-5.20124e-08
-5.20124e-08
-7.01702e-08
-5.91934e-08
-5.58457e-08
-5.1867e-08
-5.41211e-08
-6.17119e-08
-6.49163e-08
-6.49812e-08
-6.41421e-08
-5.92039e-08
-6.15397e-08
-5.75139e-08
-5.71445e-08
-5.51711e-08
-6.13474e-08
-5.58455e-08
-4.99141e-08
-5.04364e-08
-4.78913e-08
-4.67703e-08
-4.58455e-08
-4.52638e-08
-4.70739e-08
-5.10529e-08
-5.06141e-08
-4.78863e-08
-4.16082e-08
-5.07589e-08
-5.07589e-08
-5.07589e-08
-5.07588e-08
-5.19006e-08
-5.28656e-08
-4.67794e-08
-5.07588e-08
-5.07588e-08
-5.07589e-08
-5.07589e-08
-5.07589e-08
-5.07588e-08
-6.04564e-08
-5.62486e-08
-4.99158e-08
-4.58468e-08
-5.07588e-08
-5.07588e-08
-5.07588e-08
-5.07588e-08
-5.07588e-08
-5.07588e-08
-6.36554e-08
-5.58885e-08
-5.04367e-08
-4.52626e-08
-5.07587e-08
-5.07588e-08
-5.07588e-08
-5.07588e-08
-5.07588e-08
-5.07588e-08
-6.37205e-08
-5.39149e-08
-4.70749e-08
-5.07588e-08
-5.07588e-08
-5.07588e-08
-5.07588e-08
-5.07588e-08
-5.07589e-08
-6.28734e-08
-6.00874e-08
-5.1052e-08
-5.19062e-08
-5.0759e-08
-5.07589e-08
-5.07589e-08
-5.07589e-08
-6.89165e-08
-5.79398e-08
-5.45922e-08
-5.06135e-08
-5.28675e-08
-6.04581e-08
-6.36625e-08
-6.37274e-08
-6.28883e-08
-5.79502e-08
-6.02861e-08
-5.62603e-08
-5.58907e-08
-5.39174e-08
-6.00932e-08
-5.45918e-08
-4.86608e-08
-4.91831e-08
-4.66376e-08
-4.55171e-08
-4.45917e-08
-4.40104e-08
-4.58208e-08
-4.97985e-08
-4.93599e-08
-4.66327e-08
-4.03543e-08
-4.95052e-08
-4.95051e-08
-4.95051e-08
-4.9505e-08
-5.06476e-08
-5.16123e-08
-4.55259e-08
-4.95051e-08
-4.9505e-08
-4.9505e-08
-4.95051e-08
-4.95051e-08
-4.95053e-08
-5.9203e-08
-5.4995e-08
-4.86624e-08
-4.45933e-08
-4.95051e-08
-4.95051e-08
-4.95051e-08
-4.95051e-08
-4.95052e-08
-4.95052e-08
-6.24019e-08
-5.46351e-08
-4.91834e-08
-4.40091e-08
-4.95051e-08
-4.9505e-08
-4.95051e-08
-4.95051e-08
-4.95051e-08
-4.95053e-08
-6.2467e-08
-5.26615e-08
-4.58215e-08
-4.95051e-08
-4.95051e-08
-4.95052e-08
-4.95052e-08
-4.95052e-08
-4.95053e-08
-6.16199e-08
-5.8834e-08
-4.97986e-08
-5.06527e-08
-4.95053e-08
-4.95053e-08
-4.95053e-08
-4.95053e-08
-6.7663e-08
-5.66864e-08
-5.33389e-08
-4.93601e-08
-5.1614e-08
-5.92046e-08
-6.2409e-08
-6.24739e-08
-6.16348e-08
-5.66969e-08
-5.90328e-08
-5.50068e-08
-5.46374e-08
-5.26641e-08
-5.88399e-08
-5.33386e-08
-4.74063e-08
-4.79286e-08
-4.5383e-08
-4.42628e-08
-4.33373e-08
-4.27561e-08
-4.45672e-08
-4.85457e-08
-4.81057e-08
-4.53784e-08
-3.90999e-08
-4.82508e-08
-4.82508e-08
-4.82508e-08
-4.82509e-08
-4.93933e-08
-5.03581e-08
-4.42717e-08
-4.82508e-08
-4.82506e-08
-4.82508e-08
-4.82508e-08
-4.82509e-08
-4.82511e-08
-5.7949e-08
-5.37412e-08
-4.74085e-08
-4.33392e-08
-4.82508e-08
-4.82508e-08
-4.82509e-08
-4.82509e-08
-4.8251e-08
-4.82511e-08
-6.11479e-08
-5.33813e-08
-4.79294e-08
-4.2755e-08
-4.82508e-08
-4.82507e-08
-4.82509e-08
-4.82509e-08
-4.8251e-08
-4.8251e-08
-6.12129e-08
-5.14076e-08
-4.45673e-08
-4.82508e-08
-4.82508e-08
-4.8251e-08
-4.8251e-08
-4.8251e-08
-4.82511e-08
-6.03658e-08
-5.758e-08
-4.85444e-08
-4.93984e-08
-4.8251e-08
-4.82511e-08
-4.82511e-08
-4.82511e-08
-6.64089e-08
-5.54323e-08
-5.20849e-08
-4.81058e-08
-5.03597e-08
-5.79504e-08
-6.11548e-08
-6.12198e-08
-6.03807e-08
-5.54428e-08
-5.77788e-08
-5.37526e-08
-5.33833e-08
-5.14101e-08
-5.7586e-08
-5.20847e-08
-4.61516e-08
-4.66739e-08
-4.41283e-08
-4.30081e-08
-4.20826e-08
-4.15015e-08
-4.33129e-08
-4.72903e-08
-4.68511e-08
-4.41238e-08
-3.78453e-08
-4.69963e-08
-4.69964e-08
-4.69963e-08
-4.69965e-08
-4.81388e-08
-4.91037e-08
-4.30171e-08
-4.69963e-08
-4.6996e-08
-4.69963e-08
-4.69962e-08
-4.69964e-08
-4.69966e-08
-5.66946e-08
-5.2487e-08
-4.61537e-08
-4.20845e-08
-4.69962e-08
-4.69964e-08
-4.69965e-08
-4.69965e-08
-4.69966e-08
-4.69967e-08
-5.98935e-08
-5.21269e-08
-4.66746e-08
-4.15003e-08
-4.69961e-08
-4.69962e-08
-4.69965e-08
-4.69963e-08
-4.69966e-08
-4.69965e-08
-5.99585e-08
-5.0153e-08
-4.33127e-08
-4.69963e-08
-4.69963e-08
-4.69964e-08
-4.69964e-08
-4.69964e-08
-4.69966e-08
-5.91112e-08
-5.63254e-08
-4.72898e-08
-4.81439e-08
-4.69968e-08
-4.69969e-08
-4.6998e-08
-4.69968e-08
-6.51544e-08
-5.41777e-08
-5.08301e-08
-4.68512e-08
-4.91052e-08
-5.66961e-08
-5.99006e-08
-5.99656e-08
-5.91264e-08
-5.41882e-08
-5.6524e-08
-5.24983e-08
-5.21288e-08
-5.01555e-08
-5.63314e-08
-5.083e-08
-4.48975e-08
-4.54197e-08
-4.28738e-08
-4.17546e-08
-4.08284e-08
-4.02472e-08
-4.20587e-08
-4.60362e-08
-4.5597e-08
-4.28693e-08
-3.65909e-08
-4.57419e-08
-4.5742e-08
-4.57419e-08
-4.57421e-08
-4.6885e-08
-4.78495e-08
-4.17626e-08
-4.5742e-08
-4.57418e-08
-4.5742e-08
-4.57419e-08
-4.5742e-08
-4.57423e-08
-5.54403e-08
-5.12324e-08
-4.48992e-08
-4.08304e-08
-4.57418e-08
-4.57419e-08
-4.5742e-08
-4.5742e-08
-4.57422e-08
-4.57422e-08
-5.8639e-08
-5.08723e-08
-4.54201e-08
-4.02471e-08
-4.57419e-08
-4.57419e-08
-4.5742e-08
-4.5742e-08
-4.57421e-08
-4.57422e-08
-5.8704e-08
-4.88985e-08
-4.20582e-08
-4.5742e-08
-4.5742e-08
-4.57421e-08
-4.57421e-08
-4.57422e-08
-4.57423e-08
-5.78569e-08
-5.5071e-08
-4.60354e-08
-4.68895e-08
-4.57422e-08
-4.57423e-08
-4.57423e-08
-4.57423e-08
-6.39e-08
-5.29234e-08
-4.95758e-08
-4.55969e-08
-4.78511e-08
-5.54437e-08
-5.86475e-08
-5.87132e-08
-5.78727e-08
-5.29341e-08
-5.52698e-08
-5.12438e-08
-5.08746e-08
-4.89017e-08
-5.50773e-08
-4.95758e-08
-4.36429e-08
-4.4165e-08
-4.16196e-08
-4.05e-08
-3.95738e-08
-3.89925e-08
-4.08037e-08
-4.47797e-08
-4.4343e-08
-4.16148e-08
-3.5335e-08
-4.44871e-08
-4.44872e-08
-4.44872e-08
-4.44874e-08
-4.5634e-08
-4.65957e-08
-4.0508e-08
-4.44874e-08
-4.44869e-08
-4.44872e-08
-4.44872e-08
-4.44873e-08
-4.44875e-08
-5.41858e-08
-4.99779e-08
-4.36446e-08
-3.95757e-08
-4.4487e-08
-4.44871e-08
-4.44872e-08
-4.44872e-08
-4.44874e-08
-4.44875e-08
-5.73844e-08
-4.96179e-08
-4.41656e-08
-3.89924e-08
-4.44872e-08
-4.44871e-08
-4.44873e-08
-4.44873e-08
-4.44873e-08
-4.44875e-08
-5.74494e-08
-4.7644e-08
-4.08035e-08
-4.44872e-08
-4.44872e-08
-4.44873e-08
-4.44873e-08
-4.44873e-08
-4.44875e-08
-5.66022e-08
-5.38165e-08
-4.47808e-08
-4.56348e-08
-4.44874e-08
-4.44874e-08
-4.44874e-08
-4.44875e-08
-6.26452e-08
-5.16687e-08
-4.83213e-08
-4.43424e-08
-4.65964e-08
-5.41888e-08
-5.73926e-08
-5.74582e-08
-5.66178e-08
-5.16793e-08
-5.40151e-08
-4.99891e-08
-4.96199e-08
-4.76469e-08
-5.38225e-08
-4.83211e-08
-4.23877e-08
-4.29102e-08
-4.03643e-08
-3.92445e-08
-3.83186e-08
-3.77376e-08
-3.95493e-08
-4.35271e-08
-4.30873e-08
-4.036e-08
-3.40815e-08
-4.32322e-08
-4.32324e-08
-4.32323e-08
-4.32326e-08
-4.43789e-08
-4.53402e-08
-3.92532e-08
-4.32322e-08
-4.32321e-08
-4.32321e-08
-4.32323e-08
-4.32325e-08
-4.32325e-08
-5.29309e-08
-4.87229e-08
-4.23899e-08
-3.8321e-08