/*--------------------------------*- C++ -*----------------------------------*\
| =========                 |                                                 |
| \\      /  F ield         | OpenFOAM: The Open Source CFD Toolbox           |
|  \\    /   O peration     | Version:  v2012                                 |
|   \\  /    A nd           | Website:  www.openfoam.com                      |
|    \\/     M anipulation  |                                                 |
\*---------------------------------------------------------------------------*/
FoamFile
{
    version     2.0;
    format      ascii;
    class       volScalarField;
    location    "0.245";
    object      p;
}
// * * * * * * * * * * * * * * * * * * * * * * * * * * * * * * * * * * * * * //

dimensions      [0 2 -2 0 0 0 0];


internalField   nonuniform List<scalar> 
189320
(
1.59505e-07
1.61096e-07
1.51721e-07
1.51205e-07
1.47736e-07
1.46714e-07
1.49649e-07
1.5077e-07
1.48682e-07
1.51726e-07
1.46586e-07
1.46949e-07
1.45659e-07
1.45364e-07
1.4636e-07
1.46888e-07
1.4996e-07
1.5124e-07
1.46948e-07
1.44961e-07
1.44102e-07
1.43938e-07
1.44527e-07
1.45925e-07
1.46717e-07
1.51747e-07
1.59356e-07
1.47747e-07
1.45656e-07
1.44099e-07
1.43484e-07
1.43385e-07
1.43741e-07
1.44782e-07
1.47068e-07
1.51701e-07
1.60941e-07
1.46656e-07
1.45344e-07
1.43931e-07
1.43384e-07
1.43292e-07
1.43597e-07
1.44498e-07
1.46773e-07
1.49453e-07
1.49606e-07
1.46337e-07
1.44517e-07
1.43737e-07
1.43596e-07
1.44078e-07
1.45305e-07
1.47049e-07
1.614e-07
1.50732e-07
1.46865e-07
1.45913e-07
1.44784e-07
1.44506e-07
1.45312e-07
1.46919e-07
1.46596e-07
1.51447e-07
1.48649e-07
1.49941e-07
1.46713e-07
1.47079e-07
1.46805e-07
1.47073e-07
1.46612e-07
1.45633e-07
1.51709e-07
1.51726e-07
1.49576e-07
1.61454e-07
1.51486e-07
1.40168e-07
1.39965e-07
1.42027e-07
1.4161e-07
1.41809e-07
1.41728e-07
1.41642e-07
1.39251e-07
1.40041e-07
1.42095e-07
1.44763e-07
1.36151e-07
1.35469e-07
1.35474e-07
1.36139e-07
1.3778e-07
1.36909e-07
1.41681e-07
1.36121e-07
1.33474e-07
1.33916e-07
1.33908e-07
1.33479e-07
1.36152e-07
1.31311e-07
1.35161e-07
1.40186e-07
1.41834e-07
1.35471e-07
1.33904e-07
1.34127e-07
1.34124e-07
1.33913e-07
1.35461e-07
1.31096e-07
1.34764e-07
1.3998e-07
1.41756e-07
1.35474e-07
1.33903e-07
1.34123e-07
1.34124e-07
1.33917e-07
1.3547e-07
1.30876e-07
1.36547e-07
1.41678e-07
1.36119e-07
1.33469e-07
1.33911e-07
1.33904e-07
1.3348e-07
1.36156e-07
1.3103e-07
1.3163e-07
1.39272e-07
1.37688e-07
1.36137e-07
1.35475e-07
1.35478e-07
1.36129e-07
1.24073e-07
1.32755e-07
1.37209e-07
1.4006e-07
1.3698e-07
1.31421e-07
1.31133e-07
1.30905e-07
1.31069e-07
1.32924e-07
1.3188e-07
1.3523e-07
1.34818e-07
1.36576e-07
1.3167e-07
1.37271e-07
1.38105e-07
1.37608e-07
1.39935e-07
1.40095e-07
1.40622e-07
1.40951e-07
1.39873e-07
1.3712e-07
1.37634e-07
1.39936e-07
1.43986e-07
1.35568e-07
1.35389e-07
1.35387e-07
1.35566e-07
1.36008e-07
1.35154e-07
1.40098e-07
1.35566e-07
1.34057e-07
1.34016e-07
1.34007e-07
1.3406e-07
1.3557e-07
1.28581e-07
1.32656e-07
1.3811e-07
1.40625e-07
1.35391e-07
1.34009e-07
1.34014e-07
1.34007e-07
1.34012e-07
1.35385e-07
1.26252e-07
1.32966e-07
1.37615e-07
1.40956e-07
1.35394e-07
1.34007e-07
1.34009e-07
1.34008e-07
1.34014e-07
1.35387e-07
1.26188e-07
1.34132e-07
1.39874e-07
1.35567e-07
1.34058e-07
1.34014e-07
1.34006e-07
1.3406e-07
1.35572e-07
1.26681e-07
1.29255e-07
1.37133e-07
1.36018e-07
1.35575e-07
1.35392e-07
1.3539e-07
1.35572e-07
1.21672e-07
1.30564e-07
1.34149e-07
1.37648e-07
1.35173e-07
1.2859e-07
1.26265e-07
1.262e-07
1.26696e-07
1.30561e-07
1.29168e-07
1.32659e-07
1.32971e-07
1.34141e-07
1.29268e-07
1.34159e-07
1.36578e-07
1.36075e-07
1.38416e-07
1.38749e-07
1.39383e-07
1.39815e-07
1.3847e-07
1.35649e-07
1.36064e-07
1.3842e-07
1.4293e-07
1.34432e-07
1.34384e-07
1.34382e-07
1.34428e-07
1.34448e-07
1.33583e-07
1.38737e-07
1.34431e-07
1.33869e-07
1.33826e-07
1.33821e-07
1.33868e-07
1.34432e-07
1.26953e-07
1.31093e-07
1.36579e-07
1.39386e-07
1.34389e-07
1.33823e-07
1.33798e-07
1.33794e-07
1.33822e-07
1.34381e-07
1.24261e-07
1.31364e-07
1.36077e-07
1.39818e-07
1.34387e-07
1.3382e-07
1.33794e-07
1.33793e-07
1.33823e-07
1.34384e-07
1.24194e-07
1.32568e-07
1.38471e-07
1.34432e-07
1.33867e-07
1.33824e-07
1.33819e-07
1.33868e-07
1.34429e-07
1.24746e-07
1.27647e-07
1.35648e-07
1.3445e-07
1.34434e-07
1.34389e-07
1.34386e-07
1.34431e-07
1.19744e-07
1.29118e-07
1.3253e-07
1.36065e-07
1.33583e-07
1.26961e-07
1.24267e-07
1.24192e-07
1.24729e-07
1.29106e-07
1.27564e-07
1.31102e-07
1.31361e-07
1.32572e-07
1.27642e-07
1.32527e-07
1.3535e-07
1.34846e-07
1.37169e-07
1.3756e-07
1.38279e-07
1.38728e-07
1.37247e-07
1.3441e-07
1.34796e-07
1.37161e-07
1.41834e-07
1.33302e-07
1.3329e-07
1.3329e-07
1.33302e-07
1.33178e-07
1.32312e-07
1.37549e-07
1.33301e-07
1.33099e-07
1.33083e-07
1.33081e-07
1.33099e-07
1.33299e-07
1.25678e-07
1.29836e-07
1.35348e-07
1.38287e-07
1.33288e-07
1.33083e-07
1.33074e-07
1.33071e-07
1.33082e-07
1.33288e-07
1.22924e-07
1.30115e-07
1.34846e-07
1.38725e-07
1.33288e-07
1.33082e-07
1.33072e-07
1.3307e-07
1.33083e-07
1.33288e-07
1.22888e-07
1.31338e-07
1.37244e-07
1.33301e-07
1.33098e-07
1.33082e-07
1.33079e-07
1.33097e-07
1.33301e-07
1.23533e-07
1.26381e-07
1.3441e-07
1.33185e-07
1.33301e-07
1.33289e-07
1.33289e-07
1.33301e-07
1.18395e-07
1.27879e-07
1.31246e-07
1.34802e-07
1.32321e-07
1.25679e-07
1.22928e-07
1.22884e-07
1.23527e-07
1.27877e-07
1.26279e-07
1.29837e-07
1.30112e-07
1.31333e-07
1.26382e-07
1.31249e-07
1.34211e-07
1.33708e-07
1.36016e-07
1.36435e-07
1.37191e-07
1.37634e-07
1.36106e-07
1.33265e-07
1.33646e-07
1.36013e-07
1.40745e-07
1.32198e-07
1.32195e-07
1.32195e-07
1.32197e-07
1.32032e-07
1.31161e-07
1.3643e-07
1.32195e-07
1.32124e-07
1.32116e-07
1.32116e-07
1.32123e-07
1.32195e-07
1.24538e-07
1.28702e-07
1.34208e-07
1.37196e-07
1.32194e-07
1.32116e-07
1.32113e-07
1.32114e-07
1.32116e-07
1.32193e-07
1.21767e-07
1.28968e-07
1.33707e-07
1.37633e-07
1.32195e-07
1.32116e-07
1.32113e-07
1.32114e-07
1.32117e-07
1.32193e-07
1.21732e-07
1.30193e-07
1.36106e-07
1.32196e-07
1.32124e-07
1.32116e-07
1.32116e-07
1.32124e-07
1.32195e-07
1.22408e-07
1.25231e-07
1.33262e-07
1.32029e-07
1.32197e-07
1.32195e-07
1.32193e-07
1.32195e-07
1.17213e-07
1.26735e-07
1.30093e-07
1.33644e-07
1.31162e-07
1.24539e-07
1.21765e-07
1.21727e-07
1.22399e-07
1.26729e-07
1.25113e-07
1.28692e-07
1.28969e-07
1.30191e-07
1.25231e-07
1.30094e-07
1.33105e-07
1.326e-07
1.34906e-07
1.35341e-07
1.3612e-07
1.36547e-07
1.34991e-07
1.32156e-07
1.32536e-07
1.34905e-07
1.39656e-07
1.31097e-07
1.31104e-07
1.31103e-07
1.31097e-07
1.30921e-07
1.3005e-07
1.35336e-07
1.31101e-07
1.31074e-07
1.31073e-07
1.31073e-07
1.31075e-07
1.31103e-07
1.23428e-07
1.27587e-07
1.33102e-07
1.36116e-07
1.31104e-07
1.31072e-07
1.31071e-07
1.31071e-07
1.31072e-07
1.31101e-07
1.20653e-07
1.27861e-07
1.32599e-07
1.36545e-07
1.31101e-07
1.31071e-07
1.3107e-07
1.31071e-07
1.31072e-07
1.31101e-07
1.20628e-07
1.29087e-07
1.34992e-07
1.31101e-07
1.31075e-07
1.31072e-07
1.31073e-07
1.31075e-07
1.311e-07
1.21308e-07
1.24118e-07
1.32155e-07
1.30921e-07
1.31099e-07
1.311e-07
1.311e-07
1.31099e-07
1.16091e-07
1.25633e-07
1.28978e-07
1.32535e-07
1.30054e-07
1.23427e-07
1.20652e-07
1.20629e-07
1.21303e-07
1.25626e-07
1.23997e-07
1.27574e-07
1.27862e-07
1.29088e-07
1.24115e-07
1.28982e-07
1.32012e-07
1.31507e-07
1.33811e-07
1.34247e-07
1.35027e-07
1.35454e-07
1.33893e-07
1.31059e-07
1.31438e-07
1.33809e-07
1.38567e-07
1.30008e-07
1.30006e-07
1.30006e-07
1.30009e-07
1.29825e-07
1.28953e-07
1.34244e-07
1.30007e-07
1.29999e-07
1.29998e-07
1.29997e-07
1.30001e-07
1.30007e-07
1.22337e-07
1.26492e-07
1.32009e-07
1.35032e-07
1.30006e-07
1.29999e-07
1.29997e-07
1.29996e-07
1.29999e-07
1.30007e-07
1.1956e-07
1.26767e-07
1.31506e-07
1.35454e-07
1.30006e-07
1.29998e-07
1.29997e-07
1.29996e-07
1.29998e-07
1.30007e-07
1.19536e-07
1.27997e-07
1.33893e-07
1.30007e-07
1.3e-07
1.29999e-07
1.29998e-07
1.29999e-07
1.30007e-07
1.20222e-07
1.23021e-07
1.31057e-07
1.29823e-07
1.30007e-07
1.30006e-07
1.30006e-07
1.30008e-07
1.14989e-07
1.24535e-07
1.27881e-07
1.31436e-07
1.28955e-07
1.22331e-07
1.19555e-07
1.19532e-07
1.20211e-07
1.24527e-07
1.229e-07
1.26479e-07
1.26764e-07
1.27994e-07
1.23018e-07
1.27881e-07
1.30917e-07
1.30414e-07
1.32716e-07
1.33153e-07
1.33936e-07
1.34364e-07
1.32801e-07
1.29965e-07
1.30343e-07
1.32714e-07
1.37478e-07
1.28916e-07
1.28916e-07
1.28916e-07
1.28917e-07
1.28729e-07
1.27856e-07
1.33153e-07
1.28918e-07
1.28911e-07
1.2891e-07
1.2891e-07
1.28911e-07
1.28913e-07
1.21242e-07
1.25398e-07
1.30916e-07
1.33941e-07
1.28915e-07
1.28909e-07
1.28909e-07
1.28909e-07
1.28911e-07
1.28913e-07
1.18463e-07
1.25674e-07
1.30413e-07
1.34365e-07
1.28916e-07
1.28912e-07
1.28912e-07
1.2891e-07
1.28911e-07
1.28914e-07
1.18441e-07
1.26902e-07
1.32801e-07
1.28913e-07
1.28908e-07
1.28907e-07
1.28908e-07
1.2891e-07
1.28916e-07
1.19129e-07
1.21929e-07
1.29965e-07
1.28727e-07
1.28918e-07
1.28917e-07
1.28916e-07
1.28917e-07
1.13896e-07
1.23442e-07
1.26788e-07
1.30342e-07
1.2786e-07
1.21237e-07
1.1846e-07
1.18437e-07
1.19116e-07
1.23432e-07
1.21804e-07
1.25386e-07
1.25672e-07
1.269e-07
1.21925e-07
1.26789e-07
1.29823e-07
1.29319e-07
1.31622e-07
1.32062e-07
1.32845e-07
1.33271e-07
1.31705e-07
1.2887e-07
1.29249e-07
1.3162e-07
1.36385e-07
1.27822e-07
1.27822e-07
1.27822e-07
1.27821e-07
1.27634e-07
1.26762e-07
1.32059e-07
1.27821e-07
1.27819e-07
1.27818e-07
1.27819e-07
1.2782e-07
1.27821e-07
1.20146e-07
1.24303e-07
1.29822e-07
1.32849e-07
1.27822e-07
1.27821e-07
1.27819e-07
1.27821e-07
1.27819e-07
1.27822e-07
1.17369e-07
1.24579e-07
1.29319e-07
1.33272e-07
1.27821e-07
1.27818e-07
1.27818e-07
1.2782e-07
1.27817e-07
1.27821e-07
1.17347e-07
1.25808e-07
1.31705e-07
1.27823e-07
1.2782e-07
1.2782e-07
1.2782e-07
1.27819e-07
1.27823e-07
1.18034e-07
1.20833e-07
1.2887e-07
1.2763e-07
1.27821e-07
1.27821e-07
1.27821e-07
1.27821e-07
1.12801e-07
1.22346e-07
1.25692e-07
1.29247e-07
1.26765e-07
1.20142e-07
1.17361e-07
1.17342e-07
1.18022e-07
1.22337e-07
1.20708e-07
1.24291e-07
1.24576e-07
1.25806e-07
1.20829e-07
1.25693e-07
1.2873e-07
1.28226e-07
1.30531e-07
1.3097e-07
1.31752e-07
1.32177e-07
1.3061e-07
1.27779e-07
1.28155e-07
1.30527e-07
1.35289e-07
1.26728e-07
1.26727e-07
1.26727e-07
1.26727e-07
1.2654e-07
1.25669e-07
1.30965e-07
1.26727e-07
1.26729e-07
1.26728e-07
1.26728e-07
1.26729e-07
1.26727e-07
1.19055e-07
1.2321e-07
1.28728e-07
1.31756e-07
1.26728e-07
1.26728e-07
1.26728e-07
1.26728e-07
1.26728e-07
1.26728e-07
1.16276e-07
1.23486e-07
1.28225e-07
1.32178e-07
1.26728e-07
1.26728e-07
1.26728e-07
1.26728e-07
1.26728e-07
1.26728e-07
1.16256e-07
1.24716e-07
1.3061e-07
1.26727e-07
1.26728e-07
1.26728e-07
1.26728e-07
1.26728e-07
1.26727e-07
1.16942e-07
1.1974e-07
1.27777e-07
1.26536e-07
1.26727e-07
1.26728e-07
1.26728e-07
1.26727e-07
1.11709e-07
1.21254e-07
1.24599e-07
1.28154e-07
1.25671e-07
1.19049e-07
1.16268e-07
1.16249e-07
1.1693e-07
1.21245e-07
1.19616e-07
1.23197e-07
1.23483e-07
1.24713e-07
1.19736e-07
1.24599e-07
1.27637e-07
1.27133e-07
1.29433e-07
1.29879e-07
1.3066e-07
1.31085e-07
1.29518e-07
1.26685e-07
1.2706e-07
1.29434e-07
1.34197e-07
1.25636e-07
1.25636e-07
1.25636e-07
1.25636e-07
1.25447e-07
1.24575e-07
1.29873e-07
1.25636e-07
1.25636e-07
1.25636e-07
1.25636e-07
1.25636e-07
1.25636e-07
1.17962e-07
1.22118e-07
1.27636e-07
1.30665e-07
1.25636e-07
1.25636e-07
1.25636e-07
1.25636e-07
1.25636e-07
1.25636e-07
1.15186e-07
1.22394e-07
1.27133e-07
1.31087e-07
1.25636e-07
1.25636e-07
1.25636e-07
1.25636e-07
1.25636e-07
1.25636e-07
1.15165e-07
1.23624e-07
1.29518e-07
1.25636e-07
1.25636e-07
1.25636e-07
1.25636e-07
1.25636e-07
1.25636e-07
1.1585e-07
1.18647e-07
1.26684e-07
1.25444e-07
1.25636e-07
1.25636e-07
1.25636e-07
1.25636e-07
1.10617e-07
1.20161e-07
1.23506e-07
1.27061e-07
1.24579e-07
1.17957e-07
1.15177e-07
1.15158e-07
1.15838e-07
1.20153e-07
1.18523e-07
1.22105e-07
1.22391e-07
1.23622e-07
1.18644e-07
1.23507e-07
1.26547e-07
1.26043e-07
1.28345e-07
1.28788e-07
1.2957e-07
1.29995e-07
1.28426e-07
1.25592e-07
1.25969e-07
1.28344e-07
1.33108e-07
1.24545e-07
1.24545e-07
1.24545e-07
1.24545e-07
1.24354e-07
1.23484e-07
1.28783e-07
1.24545e-07
1.24545e-07
1.24545e-07
1.24545e-07
1.24545e-07
1.24545e-07
1.16871e-07
1.21027e-07
1.26545e-07
1.29574e-07
1.24545e-07
1.24545e-07
1.24545e-07
1.24545e-07
1.24545e-07
1.24545e-07
1.14095e-07
1.21303e-07
1.26042e-07
1.29996e-07
1.24545e-07
1.24545e-07
1.24545e-07
1.24544e-07
1.24545e-07
1.24545e-07
1.14074e-07
1.22533e-07
1.28427e-07
1.24545e-07
1.24545e-07
1.24545e-07
1.24545e-07
1.24545e-07
1.24545e-07
1.14759e-07
1.17557e-07
1.25594e-07
1.24353e-07
1.24545e-07
1.24545e-07
1.24545e-07
1.24545e-07
1.09525e-07
1.1907e-07
1.22415e-07
1.2597e-07
1.23488e-07
1.16866e-07
1.14086e-07
1.14065e-07
1.14747e-07
1.19062e-07
1.17432e-07
1.21014e-07
1.213e-07
1.2253e-07
1.17553e-07
1.22416e-07
1.25455e-07
1.24951e-07
1.27252e-07
1.27696e-07
1.28478e-07
1.28903e-07
1.27335e-07
1.24501e-07
1.24878e-07
1.27252e-07
1.32016e-07
1.23453e-07
1.23453e-07
1.23453e-07
1.23454e-07
1.23262e-07
1.22393e-07
1.27691e-07
1.23453e-07
1.23453e-07
1.23453e-07
1.23453e-07
1.23453e-07
1.23453e-07
1.1578e-07
1.19936e-07
1.25453e-07
1.28482e-07
1.23453e-07
1.23453e-07
1.23453e-07
1.23453e-07
1.23453e-07
1.23453e-07
1.13003e-07
1.20212e-07
1.24951e-07
1.28904e-07
1.23453e-07
1.23453e-07
1.23453e-07
1.23453e-07
1.23453e-07
1.23453e-07
1.12982e-07
1.21442e-07
1.27336e-07
1.23453e-07
1.23453e-07
1.23453e-07
1.23453e-07
1.23453e-07
1.23453e-07
1.13667e-07
1.16465e-07
1.24502e-07
1.23262e-07
1.23453e-07
1.23453e-07
1.23453e-07
1.23453e-07
1.08434e-07
1.17979e-07
1.21324e-07
1.24879e-07
1.22397e-07
1.15774e-07
1.12994e-07
1.12974e-07
1.13655e-07
1.1797e-07
1.16341e-07
1.19923e-07
1.20209e-07
1.21439e-07
1.16462e-07
1.21325e-07
1.24362e-07
1.23859e-07
1.26159e-07
1.26603e-07
1.27385e-07
1.2781e-07
1.26242e-07
1.2341e-07
1.23786e-07
1.26159e-07
1.30923e-07
1.2236e-07
1.2236e-07
1.2236e-07
1.2236e-07
1.22169e-07
1.21299e-07
1.26598e-07
1.2236e-07
1.2236e-07
1.2236e-07
1.2236e-07
1.2236e-07
1.2236e-07
1.14687e-07
1.18843e-07
1.2436e-07
1.27389e-07
1.2236e-07
1.2236e-07
1.2236e-07
1.2236e-07
1.2236e-07
1.2236e-07
1.1191e-07
1.19119e-07
1.23858e-07
1.27811e-07
1.2236e-07
1.2236e-07
1.2236e-07
1.2236e-07
1.2236e-07
1.2236e-07
1.11889e-07
1.20348e-07
1.26242e-07
1.2236e-07
1.2236e-07
1.2236e-07
1.2236e-07
1.2236e-07
1.2236e-07
1.12574e-07
1.15372e-07
1.23409e-07
1.22168e-07
1.2236e-07
1.2236e-07
1.2236e-07
1.2236e-07
1.07341e-07
1.16885e-07
1.20231e-07
1.23786e-07
1.21303e-07
1.14681e-07
1.11901e-07
1.1188e-07
1.12562e-07
1.16877e-07
1.15248e-07
1.1883e-07
1.19116e-07
1.20345e-07
1.15368e-07
1.20232e-07
1.23269e-07
1.22765e-07
1.25065e-07
1.2551e-07
1.26292e-07
1.26717e-07
1.25149e-07
1.22315e-07
1.22691e-07
1.25066e-07
1.29829e-07
1.21267e-07
1.21267e-07
1.21267e-07
1.21267e-07
1.21076e-07
1.20206e-07
1.25505e-07
1.21267e-07
1.21267e-07
1.21267e-07
1.21267e-07
1.21267e-07
1.21267e-07
1.13594e-07
1.17749e-07
1.23267e-07
1.26296e-07
1.21267e-07
1.21267e-07
1.21267e-07
1.21267e-07
1.21267e-07
1.21267e-07
1.10817e-07
1.18026e-07
1.22764e-07
1.26718e-07
1.21267e-07
1.21267e-07
1.21267e-07
1.21267e-07
1.21267e-07
1.21267e-07
1.10796e-07
1.19255e-07
1.25149e-07
1.21267e-07
1.21267e-07
1.21267e-07
1.21267e-07
1.21267e-07
1.21267e-07
1.11481e-07
1.14279e-07
1.22315e-07
1.21075e-07
1.21267e-07
1.21267e-07
1.21267e-07
1.21267e-07
1.06247e-07
1.15792e-07
1.19138e-07
1.22692e-07
1.2021e-07
1.13587e-07
1.10807e-07
1.10786e-07
1.11468e-07
1.15783e-07
1.14154e-07
1.17736e-07
1.18021e-07
1.19252e-07
1.14275e-07
1.19138e-07
1.22177e-07
1.21673e-07
1.23973e-07
1.24418e-07
1.252e-07
1.25625e-07
1.24057e-07
1.21225e-07
1.21599e-07
1.23973e-07
1.28737e-07
1.20176e-07
1.20176e-07
1.20176e-07
1.20176e-07
1.19984e-07
1.19114e-07
1.24412e-07
1.20175e-07
1.20176e-07
1.20176e-07
1.20176e-07
1.20176e-07
1.20175e-07
1.12502e-07
1.16657e-07
1.22175e-07
1.25204e-07
1.20175e-07
1.20175e-07
1.20175e-07
1.20175e-07
1.20175e-07
1.20175e-07
1.09725e-07
1.16933e-07
1.21672e-07
1.25626e-07
1.20175e-07
1.20175e-07
1.20176e-07
1.20176e-07
1.20175e-07
1.20175e-07
1.09704e-07
1.18163e-07
1.24057e-07
1.20175e-07
1.20175e-07
1.20175e-07
1.20175e-07
1.20175e-07
1.20175e-07
1.10389e-07
1.13187e-07
1.21224e-07
1.19983e-07
1.20175e-07
1.20175e-07
1.20176e-07
1.20175e-07
1.05156e-07
1.14701e-07
1.18046e-07
1.216e-07
1.19118e-07
1.12496e-07
1.09715e-07
1.09696e-07
1.10377e-07
1.14692e-07
1.13062e-07
1.16644e-07
1.1693e-07
1.18161e-07
1.13183e-07
1.18046e-07
1.21085e-07
1.20582e-07
1.22881e-07
1.23326e-07
1.24108e-07
1.24534e-07
1.22965e-07
1.20134e-07
1.20509e-07
1.22882e-07
1.27646e-07
1.19084e-07
1.19084e-07
1.19084e-07
1.19084e-07
1.18893e-07
1.18024e-07
1.23321e-07
1.19084e-07
1.19084e-07
1.19084e-07
1.19084e-07
1.19084e-07
1.19084e-07
1.11408e-07
1.15566e-07
1.21084e-07
1.24112e-07
1.19084e-07
1.19084e-07
1.19084e-07
1.19084e-07
1.19084e-07
1.19084e-07
1.08634e-07
1.15842e-07
1.20581e-07
1.24535e-07
1.19084e-07
1.19084e-07
1.19084e-07
1.19084e-07
1.19084e-07
1.19084e-07
1.08613e-07
1.17072e-07
1.22966e-07
1.19084e-07
1.19084e-07
1.19084e-07
1.19084e-07
1.19084e-07
1.19084e-07
1.09298e-07
1.12096e-07
1.20132e-07
1.18892e-07
1.19084e-07
1.19084e-07
1.19084e-07
1.19084e-07
1.04064e-07
1.13609e-07
1.16954e-07
1.20509e-07
1.18027e-07
1.11405e-07
1.08625e-07
1.08606e-07
1.09286e-07
1.13601e-07
1.11971e-07
1.15553e-07
1.15839e-07
1.1707e-07
1.12092e-07
1.16955e-07
1.19993e-07
1.1949e-07
1.2179e-07
1.22235e-07
1.23016e-07
1.23441e-07
1.21874e-07
1.19041e-07
1.19416e-07
1.21791e-07
1.26554e-07
1.17992e-07
1.17992e-07
1.17992e-07
1.17992e-07
1.17801e-07
1.16932e-07
1.22229e-07
1.17992e-07
1.17992e-07
1.17992e-07
1.17992e-07
1.17992e-07
1.17992e-07
1.10316e-07
1.14474e-07
1.19992e-07
1.2302e-07
1.17992e-07
1.17992e-07
1.17992e-07
1.17992e-07
1.17992e-07
1.17992e-07
1.07542e-07
1.1475e-07
1.19489e-07
1.23443e-07
1.17992e-07
1.17992e-07
1.17992e-07
1.17992e-07
1.17992e-07
1.17992e-07
1.0752e-07
1.1598e-07
1.21874e-07
1.17992e-07
1.17992e-07
1.17992e-07
1.17992e-07
1.17992e-07
1.17992e-07
1.08206e-07
1.11003e-07
1.1904e-07
1.178e-07
1.17992e-07
1.17992e-07
1.17992e-07
1.17992e-07
1.02972e-07
1.12517e-07
1.15862e-07
1.19417e-07
1.16935e-07
1.10312e-07
1.07532e-07
1.07512e-07
1.08193e-07
1.12508e-07
1.1088e-07
1.14461e-07
1.14746e-07
1.15975e-07
1.10999e-07
1.15863e-07
1.18901e-07
1.18397e-07
1.20698e-07
1.21142e-07
1.21924e-07
1.22349e-07
1.20781e-07
1.17948e-07
1.18325e-07
1.20699e-07
1.25462e-07
1.169e-07
1.169e-07
1.169e-07
1.169e-07
1.16709e-07
1.1584e-07
1.21137e-07
1.169e-07
1.169e-07
1.169e-07
1.169e-07
1.169e-07
1.169e-07
1.09225e-07
1.13381e-07
1.189e-07
1.21928e-07
1.169e-07
1.169e-07
1.169e-07
1.169e-07
1.169e-07
1.169e-07
1.0645e-07
1.13658e-07
1.18397e-07
1.22351e-07
1.169e-07
1.169e-07
1.169e-07
1.169e-07
1.169e-07
1.169e-07
1.06428e-07
1.14888e-07
1.20782e-07
1.169e-07
1.169e-07
1.169e-07
1.169e-07
1.169e-07
1.169e-07
1.07114e-07
1.09911e-07
1.17948e-07
1.16708e-07
1.169e-07
1.169e-07
1.169e-07
1.169e-07
1.0188e-07
1.11425e-07
1.1477e-07
1.18325e-07
1.15843e-07
1.09221e-07
1.06443e-07
1.06423e-07
1.07102e-07
1.11416e-07
1.09787e-07
1.13369e-07
1.13655e-07
1.14885e-07
1.09906e-07
1.14771e-07
1.17809e-07
1.17305e-07
1.19606e-07
1.2005e-07
1.20832e-07
1.21257e-07
1.1969e-07
1.16855e-07
1.17233e-07
1.19606e-07
1.24369e-07
1.15807e-07
1.15807e-07
1.15807e-07
1.15807e-07
1.15618e-07
1.14747e-07
1.20045e-07
1.15807e-07
1.15807e-07
1.15807e-07
1.15807e-07
1.15807e-07
1.15807e-07
1.08132e-07
1.12289e-07
1.17807e-07
1.20836e-07
1.15807e-07
1.15807e-07
1.15807e-07
1.15807e-07
1.15807e-07
1.15807e-07
1.05357e-07
1.12566e-07
1.17305e-07
1.21258e-07
1.15807e-07
1.15807e-07
1.15807e-07
1.15807e-07
1.15807e-07
1.15807e-07
1.05336e-07
1.13796e-07
1.19689e-07
1.15807e-07
1.15807e-07
1.15807e-07
1.15807e-07
1.15807e-07
1.15807e-07
1.06021e-07
1.08819e-07
1.16856e-07
1.15615e-07
1.15807e-07
1.15807e-07
1.15807e-07
1.15807e-07
1.00788e-07
1.10333e-07
1.13678e-07
1.17233e-07
1.14751e-07
1.08129e-07
1.0535e-07
1.0533e-07
1.06009e-07
1.10324e-07
1.08695e-07
1.12277e-07
1.12563e-07
1.13792e-07
1.08814e-07
1.13679e-07
1.16716e-07
1.16213e-07
1.18512e-07
1.18956e-07
1.19739e-07
1.20164e-07
1.18597e-07
1.15761e-07
1.16139e-07
1.18513e-07
1.23276e-07
1.14714e-07
1.14714e-07
1.14714e-07
1.14714e-07
1.14525e-07
1.13654e-07
1.18952e-07
1.14714e-07
1.14714e-07
1.14714e-07
1.14714e-07
1.14714e-07
1.14714e-07
1.07039e-07
1.11196e-07
1.16715e-07
1.19743e-07
1.14714e-07
1.14714e-07
1.14714e-07
1.14714e-07
1.14714e-07
1.14714e-07
1.04264e-07
1.11473e-07
1.16212e-07
1.20166e-07
1.14714e-07
1.14714e-07
1.14714e-07
1.14714e-07
1.14714e-07
1.14714e-07
1.04243e-07
1.12703e-07
1.18597e-07
1.14714e-07
1.14714e-07
1.14714e-07
1.14714e-07
1.14714e-07
1.14714e-07
1.04929e-07
1.07727e-07
1.15764e-07
1.14523e-07
1.14714e-07
1.14714e-07
1.14714e-07
1.14714e-07
9.96949e-08
1.0924e-07
1.12586e-07
1.16141e-07
1.13658e-07
1.07036e-07
1.04258e-07
1.04237e-07
1.04916e-07
1.09231e-07
1.07602e-07
1.11184e-07
1.1147e-07
1.127e-07
1.07721e-07
1.12587e-07
1.15622e-07
1.15118e-07
1.17417e-07
1.17862e-07
1.18645e-07
1.1907e-07
1.17503e-07
1.14667e-07
1.15045e-07
1.17419e-07
1.22182e-07
1.1362e-07
1.1362e-07
1.1362e-07
1.1362e-07
1.13432e-07
1.1256e-07
1.17858e-07
1.1362e-07
1.1362e-07
1.1362e-07
1.1362e-07
1.1362e-07
1.1362e-07
1.05945e-07
1.10102e-07
1.15621e-07
1.18649e-07
1.1362e-07
1.1362e-07
1.1362e-07
1.1362e-07
1.1362e-07
1.1362e-07
1.0317e-07
1.10379e-07
1.15118e-07
1.19072e-07
1.1362e-07
1.1362e-07
1.1362e-07
1.1362e-07
1.1362e-07
1.1362e-07
1.03149e-07
1.11609e-07
1.17503e-07
1.13621e-07
1.13621e-07
1.13621e-07
1.13621e-07
1.13621e-07
1.1362e-07
1.03835e-07
1.06633e-07
1.1467e-07
1.13429e-07
1.13621e-07
1.13621e-07
1.13621e-07
1.13621e-07
9.86012e-08
1.08146e-07
1.11492e-07
1.15047e-07
1.12564e-07
1.05942e-07
1.03164e-07
1.03144e-07
1.03823e-07
1.08137e-07
1.06508e-07
1.1009e-07
1.10376e-07
1.11606e-07
1.06627e-07
1.11493e-07
1.14528e-07
1.14025e-07
1.16324e-07
1.16769e-07
1.17552e-07
1.17977e-07
1.1641e-07
1.13573e-07
1.13951e-07
1.16326e-07
1.21089e-07
1.12527e-07
1.12527e-07
1.12527e-07
1.12527e-07
1.12339e-07
1.11467e-07
1.16764e-07
1.12527e-07
1.12527e-07
1.12527e-07
1.12527e-07
1.12527e-07
1.12527e-07
1.04852e-07
1.0901e-07
1.14527e-07
1.17556e-07
1.12527e-07
1.12527e-07
1.12527e-07
1.12527e-07
1.12527e-07
1.12527e-07
1.02077e-07
1.09285e-07
1.14024e-07
1.17978e-07
1.12527e-07
1.12527e-07
1.12527e-07
1.12527e-07
1.12527e-07
1.12527e-07
1.02056e-07
1.10515e-07
1.16409e-07
1.12527e-07
1.12527e-07
1.12527e-07
1.12527e-07
1.12527e-07
1.12527e-07
1.02741e-07
1.05539e-07
1.13576e-07
1.12336e-07
1.12527e-07
1.12527e-07
1.12527e-07
1.12527e-07
9.75078e-08
1.07053e-07
1.10398e-07
1.13953e-07
1.11471e-07
1.04849e-07
1.0207e-07
1.0205e-07
1.02729e-07
1.07044e-07
1.05415e-07
1.08997e-07
1.09283e-07
1.10512e-07
1.05534e-07
1.104e-07
1.13436e-07
1.12932e-07
1.15232e-07
1.15677e-07
1.16459e-07
1.16884e-07
1.15317e-07
1.12482e-07
1.12859e-07
1.15233e-07
1.19996e-07
1.11434e-07
1.11434e-07
1.11434e-07
1.11434e-07
1.11246e-07
1.10374e-07
1.15672e-07
1.11435e-07
1.11435e-07
1.11434e-07
1.11434e-07
1.11434e-07
1.11434e-07
1.03759e-07
1.07917e-07
1.13435e-07
1.16463e-07
1.11434e-07
1.11434e-07
1.11434e-07
1.11434e-07
1.11434e-07
1.11434e-07
1.00984e-07
1.08193e-07
1.12932e-07
1.16886e-07
1.11434e-07
1.11435e-07
1.11434e-07
1.11434e-07
1.11434e-07
1.11434e-07
1.00963e-07
1.09423e-07
1.15317e-07
1.11434e-07
1.11435e-07
1.11435e-07
1.11434e-07
1.11434e-07
1.11434e-07
1.01649e-07
1.04446e-07
1.12483e-07
1.11243e-07
1.11435e-07
1.11435e-07
1.11435e-07
1.11435e-07
9.64151e-08
1.0596e-07
1.09305e-07
1.1286e-07
1.10378e-07
1.03756e-07
1.00978e-07
1.00958e-07
1.01637e-07
1.05951e-07
1.04322e-07
1.07904e-07
1.0819e-07
1.09419e-07
1.04442e-07
1.09307e-07
1.12344e-07
1.1184e-07
1.14139e-07
1.14584e-07
1.15367e-07
1.15791e-07
1.14224e-07
1.11389e-07
1.11766e-07
1.14141e-07
1.18903e-07
1.10341e-07
1.10341e-07
1.10341e-07
1.10341e-07
1.10153e-07
1.09282e-07
1.14579e-07
1.10341e-07
1.10342e-07
1.10341e-07
1.10341e-07
1.10341e-07
1.10341e-07
1.02666e-07
1.06824e-07
1.12342e-07
1.1537e-07
1.10341e-07
1.10341e-07
1.10341e-07
1.10341e-07
1.10341e-07
1.10341e-07
9.98915e-08
1.071e-07
1.11839e-07
1.15793e-07
1.10341e-07
1.10341e-07
1.10341e-07
1.10341e-07
1.10341e-07
1.10341e-07
9.98704e-08
1.0833e-07
1.14224e-07
1.10341e-07
1.10341e-07
1.10341e-07
1.10341e-07
1.10341e-07
1.10341e-07
1.00556e-07
1.03354e-07
1.11391e-07
1.1015e-07
1.10341e-07
1.10341e-07
1.10341e-07
1.10341e-07
9.5322e-08
1.04867e-07
1.08213e-07
1.11768e-07
1.09285e-07
1.02663e-07
9.98847e-08
9.98645e-08
1.00544e-07
1.04858e-07
1.03229e-07
1.06811e-07
1.07097e-07
1.08326e-07
1.03349e-07
1.08214e-07
1.1125e-07
1.10746e-07
1.13045e-07
1.1349e-07
1.14273e-07
1.14697e-07
1.1313e-07
1.10295e-07
1.10673e-07
1.13047e-07
1.1781e-07
1.09248e-07
1.09248e-07
1.09248e-07
1.09247e-07
1.0906e-07
1.08188e-07
1.13485e-07
1.09248e-07
1.09248e-07
1.09248e-07
1.09248e-07
1.09248e-07
1.09247e-07
1.01572e-07
1.0573e-07
1.11248e-07
1.14276e-07
1.09248e-07
1.09248e-07
1.09248e-07
1.09248e-07
1.09247e-07
1.09247e-07
9.87976e-08
1.06006e-07
1.10745e-07
1.14699e-07
1.09248e-07
1.09248e-07
1.09248e-07
1.09248e-07
1.09247e-07
1.09247e-07
9.87764e-08
1.07236e-07
1.1313e-07
1.09248e-07
1.09248e-07
1.09248e-07
1.09248e-07
1.09248e-07
1.09247e-07
9.94617e-08
1.0226e-07
1.10297e-07
1.09056e-07
1.09247e-07
1.09247e-07
1.09246e-07
1.09247e-07
9.4228e-08
1.03773e-07
1.07118e-07
1.10674e-07
1.08191e-07
1.01569e-07
9.87904e-08
9.87701e-08
9.94493e-08
1.03764e-07
1.02135e-07
1.05717e-07
1.06003e-07
1.07232e-07
1.02254e-07
1.0712e-07
1.10156e-07
1.09653e-07
1.11952e-07
1.12396e-07
1.1318e-07
1.13604e-07
1.12037e-07
1.09202e-07
1.09579e-07
1.11953e-07
1.16717e-07
1.08155e-07
1.08155e-07
1.08155e-07
1.08155e-07
1.07966e-07
1.07094e-07
1.12392e-07
1.08155e-07
1.08155e-07
1.08155e-07
1.08155e-07
1.08155e-07
1.08154e-07
1.00479e-07
1.04637e-07
1.10155e-07
1.13183e-07
1.08155e-07
1.08155e-07
1.08155e-07
1.08155e-07
1.08155e-07
1.08154e-07
9.77043e-08
1.04912e-07
1.09652e-07
1.13605e-07
1.08155e-07
1.08155e-07
1.08155e-07
1.08155e-07
1.08155e-07
1.08154e-07
9.76832e-08
1.06143e-07
1.12037e-07
1.08155e-07
1.08155e-07
1.08155e-07
1.08155e-07
1.08155e-07
1.08154e-07
9.83685e-08
1.01166e-07
1.09203e-07
1.07963e-07
1.08155e-07
1.08155e-07
1.08155e-07
1.08155e-07
9.3135e-08
1.0268e-07
1.06025e-07
1.0958e-07
1.07097e-07
1.00474e-07
9.76961e-08
9.76753e-08
9.83556e-08
1.02671e-07
1.01041e-07
1.04623e-07
1.04909e-07
1.06138e-07
1.01161e-07
1.06027e-07
1.09064e-07
1.08561e-07
1.1086e-07
1.11304e-07
1.12087e-07
1.12512e-07
1.10944e-07
1.08111e-07
1.08487e-07
1.10861e-07
1.15625e-07
1.07063e-07
1.07062e-07
1.07062e-07
1.07062e-07
1.0687e-07
1.06002e-07
1.113e-07
1.07062e-07
1.07063e-07
1.07062e-07
1.07062e-07
1.07062e-07
1.07062e-07
9.93868e-08
1.03545e-07
1.09062e-07
1.12091e-07
1.07062e-07
1.07062e-07
1.07062e-07
1.07062e-07
1.07062e-07
1.07062e-07
9.66121e-08
1.0382e-07
1.08559e-07
1.12512e-07
1.07062e-07
1.07062e-07
1.07062e-07
1.07062e-07
1.07062e-07
1.07062e-07
9.6591e-08
1.0505e-07
1.10944e-07
1.07062e-07
1.07062e-07
1.07062e-07
1.07062e-07
1.07062e-07
1.07062e-07
9.72762e-08
1.00074e-07
1.08111e-07
1.0687e-07
1.07062e-07
1.07062e-07
1.07062e-07
1.07062e-07
9.20426e-08
1.01587e-07
1.04933e-07
1.08488e-07
1.06005e-07
9.93815e-08
9.66039e-08
9.65831e-08
9.72634e-08
1.01578e-07
9.99492e-08
1.03531e-07
1.03817e-07
1.05046e-07
1.00069e-07
1.04934e-07
1.07972e-07
1.07468e-07
1.09768e-07
1.10212e-07
1.10995e-07
1.1142e-07
1.09852e-07
1.07017e-07
1.07395e-07
1.09769e-07
1.14532e-07
1.0597e-07
1.0597e-07
1.0597e-07
1.0597e-07
1.05779e-07
1.0491e-07
1.10207e-07
1.0597e-07
1.0597e-07
1.0597e-07
1.0597e-07
1.0597e-07
1.0597e-07
9.82947e-08
1.02453e-07
1.0797e-07
1.10998e-07
1.0597e-07
1.0597e-07
1.0597e-07
1.0597e-07
1.0597e-07
1.0597e-07
9.552e-08
1.02728e-07
1.07467e-07
1.1142e-07
1.0597e-07
1.0597e-07
1.0597e-07
1.0597e-07
1.0597e-07
1.0597e-07
9.54987e-08
1.03958e-07
1.09852e-07
1.0597e-07
1.0597e-07
1.0597e-07
1.0597e-07
1.0597e-07
1.0597e-07
9.6184e-08
9.89818e-08
1.07019e-07
1.05778e-07
1.0597e-07
1.0597e-07
1.0597e-07
1.0597e-07
9.09503e-08
1.00495e-07
1.03841e-07
1.07395e-07
1.04913e-07
9.82893e-08
9.5513e-08
9.54914e-08
9.6171e-08
1.00486e-07
9.88572e-08
1.02439e-07
1.02725e-07
1.03955e-07
9.89767e-08
1.03842e-07
1.06879e-07
1.06375e-07
1.08674e-07
1.09119e-07
1.09901e-07
1.10326e-07
1.08759e-07
1.05924e-07
1.06302e-07
1.08676e-07
1.13439e-07
1.04877e-07
1.04877e-07
1.04877e-07
1.04877e-07
1.04686e-07
1.03817e-07
1.09115e-07
1.04877e-07
1.04877e-07
1.04877e-07
1.04877e-07
1.04877e-07
1.04877e-07
9.72019e-08
1.0136e-07
1.06877e-07
1.09905e-07
1.04877e-07
1.04877e-07
1.04877e-07
1.04877e-07
1.04877e-07
1.04877e-07
9.44271e-08
1.01635e-07
1.06374e-07
1.10327e-07
1.04877e-07
1.04877e-07
1.04877e-07
1.04877e-07
1.04877e-07
1.04877e-07
9.44058e-08
1.02865e-07
1.08759e-07
1.04877e-07
1.04877e-07
1.04877e-07
1.04877e-07
1.04877e-07
1.04877e-07
9.5091e-08
9.78887e-08
1.05926e-07
1.04685e-07
1.04877e-07
1.04877e-07
1.04877e-07
1.04877e-07
8.98574e-08
9.94022e-08
1.02747e-07
1.06302e-07
1.0382e-07
9.71963e-08
9.44199e-08
9.43983e-08
9.50779e-08
9.93931e-08
9.77639e-08
1.01346e-07
1.01632e-07
1.02863e-07
9.78835e-08
1.02749e-07
1.05786e-07
1.05283e-07
1.07581e-07
1.08025e-07
1.08808e-07
1.09234e-07
1.07666e-07
1.04832e-07
1.05209e-07
1.07583e-07
1.12346e-07
1.03785e-07
1.03785e-07
1.03784e-07
1.03784e-07
1.03594e-07
1.02724e-07
1.08022e-07
1.03784e-07
1.03785e-07
1.03785e-07
1.03784e-07
1.03785e-07
1.03784e-07
9.61094e-08
1.00267e-07
1.05785e-07
1.08813e-07
1.03784e-07
1.03784e-07
1.03784e-07
1.03784e-07
1.03784e-07
1.03784e-07
9.33346e-08
1.00543e-07
1.05282e-07
1.09234e-07
1.03784e-07
1.03784e-07
1.03784e-07
1.03784e-07
1.03784e-07
1.03784e-07
9.33134e-08
1.01773e-07
1.07666e-07
1.03784e-07
1.03784e-07
1.03784e-07
1.03784e-07
1.03784e-07
1.03784e-07
9.39987e-08
9.67963e-08
1.04833e-07
1.03592e-07
1.03784e-07
1.03784e-07
1.03784e-07
1.03784e-07
8.87651e-08
9.83099e-08
1.01655e-07
1.0521e-07
1.02727e-07
9.61037e-08
9.33274e-08
9.33059e-08