/*--------------------------------*- C++ -*----------------------------------*\
| =========                 |                                                 |
| \\      /  F ield         | OpenFOAM: The Open Source CFD Toolbox           |
|  \\    /   O peration     | Version:  v2012                                 |
|   \\  /    A nd           | Website:  www.openfoam.com                      |
|    \\/     M anipulation  |                                                 |
\*---------------------------------------------------------------------------*/
FoamFile
{
    version     2.0;
    format      ascii;
    class       volScalarField;
    location    "0.09";
    object      p;
}
// * * * * * * * * * * * * * * * * * * * * * * * * * * * * * * * * * * * * * //

dimensions      [0 2 -2 0 0 0 0];


internalField   nonuniform List<scalar> 
189320
(
-3.28404e-06
-3.26835e-06
-3.28779e-06
-3.29589e-06
-3.31414e-06
-3.31911e-06
-3.30747e-06
-3.30202e-06
-3.29335e-06
-3.28777e-06
-3.31414e-06
-3.31738e-06
-3.32411e-06
-3.32547e-06
-3.32109e-06
-3.31603e-06
-3.29949e-06
-3.29585e-06
-3.31739e-06
-3.3268e-06
-3.33122e-06
-3.33208e-06
-3.32941e-06
-3.32206e-06
-3.31457e-06
-3.29824e-06
-3.28437e-06
-3.31413e-06
-3.32411e-06
-3.33122e-06
-3.33386e-06
-3.33429e-06
-3.33291e-06
-3.32846e-06
-3.31769e-06
-3.30242e-06
-3.26859e-06
-3.31918e-06
-3.32547e-06
-3.33207e-06
-3.33428e-06
-3.33466e-06
-3.33354e-06
-3.32975e-06
-3.3203e-06
-3.30002e-06
-3.30751e-06
-3.32109e-06
-3.3294e-06
-3.3329e-06
-3.33354e-06
-3.33155e-06
-3.32589e-06
-3.31594e-06
-3.28552e-06
-3.30206e-06
-3.31603e-06
-3.32205e-06
-3.32843e-06
-3.32973e-06
-3.32588e-06
-3.31724e-06
-3.31227e-06
-3.29697e-06
-3.29336e-06
-3.29947e-06
-3.31454e-06
-3.31764e-06
-3.32025e-06
-3.31592e-06
-3.31225e-06
-3.30707e-06
-3.29816e-06
-3.30237e-06
-3.29978e-06
-3.28544e-06
-3.29692e-06
-3.3037e-06
-3.30502e-06
-3.29898e-06
-3.29114e-06
-3.29006e-06
-3.28528e-06
-3.29018e-06
-3.30997e-06
-3.30652e-06
-3.29946e-06
-3.27422e-06
-3.29111e-06
-3.29779e-06
-3.29783e-06
-3.29116e-06
-3.30299e-06
-3.30807e-06
-3.29107e-06
-3.29111e-06
-3.31333e-06
-3.31495e-06
-3.315e-06
-3.31334e-06
-3.2911e-06
-3.32957e-06
-3.31886e-06
-3.3036e-06
-3.29003e-06
-3.29781e-06
-3.315e-06
-3.3152e-06
-3.31521e-06
-3.31499e-06
-3.29786e-06
-3.33163e-06
-3.31908e-06
-3.30497e-06
-3.28524e-06
-3.29779e-06
-3.31499e-06
-3.31521e-06
-3.31521e-06
-3.31497e-06
-3.29783e-06
-3.33249e-06
-3.31008e-06
-3.29015e-06
-3.29114e-06
-3.31332e-06
-3.31498e-06
-3.31501e-06
-3.31332e-06
-3.29111e-06
-3.33232e-06
-3.32588e-06
-3.30989e-06
-3.30298e-06
-3.29106e-06
-3.29777e-06
-3.29782e-06
-3.2911e-06
-3.35692e-06
-3.32221e-06
-3.31361e-06
-3.30663e-06
-3.30806e-06
-3.32954e-06
-3.33163e-06
-3.3325e-06
-3.33233e-06
-3.32226e-06
-3.32903e-06
-3.31886e-06
-3.31909e-06
-3.31009e-06
-3.32589e-06
-3.31357e-06
-3.27445e-06
-3.27564e-06
-3.2688e-06
-3.26014e-06
-3.25804e-06
-3.25544e-06
-3.25956e-06
-3.27955e-06
-3.276e-06
-3.26881e-06
-3.24325e-06
-3.25753e-06
-3.25895e-06
-3.25899e-06
-3.25756e-06
-3.27439e-06
-3.27431e-06
-3.26015e-06
-3.25753e-06
-3.26692e-06
-3.26827e-06
-3.26833e-06
-3.26691e-06
-3.25753e-06
-3.29798e-06
-3.28976e-06
-3.27443e-06
-3.258e-06
-3.25894e-06
-3.26832e-06
-3.26928e-06
-3.26931e-06
-3.2683e-06
-3.25899e-06
-3.30707e-06
-3.28918e-06
-3.27561e-06
-3.25542e-06
-3.25893e-06
-3.26832e-06
-3.2693e-06
-3.2693e-06
-3.26829e-06
-3.25898e-06
-3.30879e-06
-3.27737e-06
-3.25953e-06
-3.25753e-06
-3.26691e-06
-3.26829e-06
-3.26833e-06
-3.2669e-06
-3.25754e-06
-3.30546e-06
-3.29916e-06
-3.27951e-06
-3.27437e-06
-3.25749e-06
-3.25893e-06
-3.25897e-06
-3.25752e-06
-3.31765e-06
-3.28921e-06
-3.28459e-06
-3.27591e-06
-3.27427e-06
-3.29795e-06
-3.30705e-06
-3.30871e-06
-3.30544e-06
-3.28926e-06
-3.29881e-06
-3.28972e-06
-3.28915e-06
-3.27734e-06
-3.29914e-06
-3.28457e-06
-3.23931e-06
-3.24034e-06
-3.23457e-06
-3.22502e-06
-3.22234e-06
-3.21982e-06
-3.22451e-06
-3.24501e-06
-3.24194e-06
-3.23457e-06
-3.20766e-06
-3.22254e-06
-3.22284e-06
-3.22285e-06
-3.22255e-06
-3.24042e-06
-3.24004e-06
-3.22501e-06
-3.22254e-06
-3.22566e-06
-3.22632e-06
-3.22635e-06
-3.22566e-06
-3.22253e-06
-3.26261e-06
-3.25501e-06
-3.23931e-06
-3.22236e-06
-3.22282e-06
-3.22634e-06
-3.22698e-06
-3.22699e-06
-3.22634e-06
-3.22285e-06
-3.2718e-06
-3.25386e-06
-3.24032e-06
-3.21981e-06
-3.22282e-06
-3.22635e-06
-3.227e-06
-3.227e-06
-3.22633e-06
-3.22284e-06
-3.27251e-06
-3.24158e-06
-3.22451e-06
-3.22253e-06
-3.22566e-06
-3.22633e-06
-3.22635e-06
-3.22566e-06
-3.22255e-06
-3.26952e-06
-3.26417e-06
-3.24501e-06
-3.2404e-06
-3.22251e-06
-3.22281e-06
-3.22283e-06
-3.22253e-06
-3.28388e-06
-3.25412e-06
-3.25009e-06
-3.24187e-06
-3.24003e-06
-3.2626e-06
-3.27179e-06
-3.2725e-06
-3.26956e-06
-3.25418e-06
-3.26501e-06
-3.255e-06
-3.25384e-06
-3.24157e-06
-3.26418e-06
-3.2501e-06
-3.20337e-06
-3.20437e-06
-3.19892e-06
-3.18902e-06
-3.1862e-06
-3.18357e-06
-3.18856e-06
-3.20924e-06
-3.20628e-06
-3.19892e-06
-3.17131e-06
-3.18653e-06
-3.18661e-06
-3.18662e-06
-3.18653e-06
-3.20473e-06
-3.20442e-06
-3.18901e-06
-3.18652e-06
-3.18766e-06
-3.18783e-06
-3.18784e-06
-3.18766e-06
-3.18653e-06
-3.22656e-06
-3.21923e-06
-3.20337e-06
-3.18621e-06
-3.1866e-06
-3.18783e-06
-3.18803e-06
-3.18804e-06
-3.18783e-06
-3.18662e-06
-3.23561e-06
-3.21787e-06
-3.20436e-06
-3.18355e-06
-3.1866e-06
-3.18783e-06
-3.18804e-06
-3.18804e-06
-3.18783e-06
-3.18661e-06
-3.23627e-06
-3.20554e-06
-3.18854e-06
-3.18652e-06
-3.18765e-06
-3.18783e-06
-3.18784e-06
-3.18766e-06
-3.18653e-06
-3.23315e-06
-3.22832e-06
-3.20923e-06
-3.20473e-06
-3.18653e-06
-3.1866e-06
-3.18661e-06
-3.18653e-06
-3.24843e-06
-3.21824e-06
-3.21437e-06
-3.20629e-06
-3.20442e-06
-3.22656e-06
-3.23559e-06
-3.23628e-06
-3.23317e-06
-3.21829e-06
-3.22955e-06
-3.21922e-06
-3.21787e-06
-3.20553e-06
-3.2283e-06
-3.21437e-06
-3.16711e-06
-3.16809e-06
-3.16275e-06
-3.15274e-06
-3.14985e-06
-3.14713e-06
-3.15226e-06
-3.17305e-06
-3.17016e-06
-3.16275e-06
-3.13485e-06
-3.1502e-06
-3.15022e-06
-3.15022e-06
-3.15021e-06
-3.16854e-06
-3.16829e-06
-3.15274e-06
-3.15021e-06
-3.15063e-06
-3.1507e-06
-3.1507e-06
-3.15064e-06
-3.15022e-06
-3.19029e-06
-3.18303e-06
-3.16711e-06
-3.14987e-06
-3.15022e-06
-3.1507e-06
-3.15076e-06
-3.15076e-06
-3.1507e-06
-3.15022e-06
-3.19924e-06
-3.18161e-06
-3.16809e-06
-3.14712e-06
-3.15022e-06
-3.1507e-06
-3.15076e-06
-3.15076e-06
-3.1507e-06
-3.15022e-06
-3.19988e-06
-3.16927e-06
-3.15225e-06
-3.15021e-06
-3.15063e-06
-3.1507e-06
-3.1507e-06
-3.15063e-06
-3.15021e-06
-3.19676e-06
-3.19209e-06
-3.17304e-06
-3.16854e-06
-3.1502e-06
-3.15022e-06
-3.15023e-06
-3.15021e-06
-3.2124e-06
-3.18204e-06
-3.17821e-06
-3.17018e-06
-3.16828e-06
-3.19028e-06
-3.19922e-06
-3.19988e-06
-3.19677e-06
-3.18208e-06
-3.19349e-06
-3.18304e-06
-3.18161e-06
-3.16926e-06
-3.19206e-06
-3.1782e-06
-3.13075e-06
-3.13172e-06
-3.12642e-06
-3.11635e-06
-3.11343e-06
-3.11068e-06
-3.11588e-06
-3.13669e-06
-3.13382e-06
-3.12642e-06
-3.09839e-06
-3.11382e-06
-3.11381e-06
-3.11381e-06
-3.11382e-06
-3.13218e-06
-3.13197e-06
-3.11635e-06
-3.11381e-06
-3.11397e-06
-3.11399e-06
-3.11399e-06
-3.11396e-06
-3.1138e-06
-3.15392e-06
-3.14669e-06
-3.13074e-06
-3.11343e-06
-3.1138e-06
-3.11399e-06
-3.11402e-06
-3.11402e-06
-3.114e-06
-3.11381e-06
-3.16281e-06
-3.14525e-06
-3.13172e-06
-3.11068e-06
-3.1138e-06
-3.114e-06
-3.11402e-06
-3.11401e-06
-3.114e-06
-3.11381e-06
-3.16346e-06
-3.13289e-06
-3.11588e-06
-3.1138e-06
-3.11396e-06
-3.11399e-06
-3.11399e-06
-3.11396e-06
-3.1138e-06
-3.16036e-06
-3.15574e-06
-3.13669e-06
-3.13218e-06
-3.11381e-06
-3.11381e-06
-3.11381e-06
-3.11381e-06
-3.17614e-06
-3.14569e-06
-3.14185e-06
-3.13385e-06
-3.13195e-06
-3.15393e-06
-3.16284e-06
-3.16344e-06
-3.16037e-06
-3.14574e-06
-3.15718e-06
-3.14669e-06
-3.14525e-06
-3.13288e-06
-3.15575e-06
-3.14186e-06
-3.09433e-06
-3.0953e-06
-3.09002e-06
-3.07994e-06
-3.077e-06
-3.07424e-06
-3.07947e-06
-3.10029e-06
-3.09742e-06
-3.09001e-06
-3.06193e-06
-3.07738e-06
-3.07739e-06
-3.0774e-06
-3.07738e-06
-3.09577e-06
-3.09557e-06
-3.07993e-06
-3.07739e-06
-3.07744e-06
-3.07745e-06
-3.07746e-06
-3.07743e-06
-3.07739e-06
-3.1175e-06
-3.11028e-06
-3.09432e-06
-3.077e-06
-3.07739e-06
-3.07745e-06
-3.07746e-06
-3.07747e-06
-3.07745e-06
-3.07739e-06
-3.1264e-06
-3.10882e-06
-3.0953e-06
-3.07424e-06
-3.07739e-06
-3.07745e-06
-3.07746e-06
-3.07747e-06
-3.07745e-06
-3.07739e-06
-3.12701e-06
-3.09647e-06
-3.07947e-06
-3.07739e-06
-3.07744e-06
-3.07745e-06
-3.07745e-06
-3.07744e-06
-3.07739e-06
-3.12391e-06
-3.11933e-06
-3.10029e-06
-3.09577e-06
-3.07739e-06
-3.07739e-06
-3.07739e-06
-3.07738e-06
-3.1398e-06
-3.10931e-06
-3.10546e-06
-3.09745e-06
-3.09556e-06
-3.1175e-06
-3.12639e-06
-3.12699e-06
-3.12392e-06
-3.10935e-06
-3.12078e-06
-3.11028e-06
-3.10882e-06
-3.09646e-06
-3.11933e-06
-3.10547e-06
-3.05791e-06
-3.05888e-06
-3.0536e-06
-3.04352e-06
-3.04057e-06
-3.03779e-06
-3.04304e-06
-3.06387e-06
-3.06101e-06
-3.0536e-06
-3.02549e-06
-3.04095e-06
-3.04095e-06
-3.04095e-06
-3.04095e-06
-3.05935e-06
-3.05916e-06
-3.04351e-06
-3.04094e-06
-3.04098e-06
-3.04099e-06
-3.04099e-06
-3.04098e-06
-3.04096e-06
-3.0811e-06
-3.07387e-06
-3.0579e-06
-3.04057e-06
-3.04095e-06
-3.04099e-06
-3.04099e-06
-3.04099e-06
-3.04099e-06
-3.04096e-06
-3.08998e-06
-3.07241e-06
-3.05888e-06
-3.0378e-06
-3.04095e-06
-3.04099e-06
-3.04099e-06
-3.04099e-06
-3.04099e-06
-3.04096e-06
-3.09059e-06
-3.06006e-06
-3.04305e-06
-3.04096e-06
-3.04099e-06
-3.041e-06
-3.04099e-06
-3.04098e-06
-3.04095e-06
-3.08749e-06
-3.08291e-06
-3.06386e-06
-3.05935e-06
-3.04095e-06
-3.04095e-06
-3.04095e-06
-3.04095e-06
-3.10339e-06
-3.07289e-06
-3.06904e-06
-3.06103e-06
-3.05915e-06
-3.08109e-06
-3.08997e-06
-3.09057e-06
-3.08751e-06
-3.07293e-06
-3.08439e-06
-3.07387e-06
-3.0724e-06
-3.06004e-06
-3.08291e-06
-3.06905e-06
-3.02148e-06
-3.02246e-06
-3.01718e-06
-3.00709e-06
-3.00413e-06
-3.00136e-06
-3.00662e-06
-3.02745e-06
-3.02459e-06
-3.01718e-06
-2.98905e-06
-3.00453e-06
-3.00453e-06
-3.00453e-06
-3.00453e-06
-3.02293e-06
-3.02274e-06
-3.00708e-06
-3.00453e-06
-3.00454e-06
-3.00454e-06
-3.00454e-06
-3.00454e-06
-3.00453e-06
-3.04467e-06
-3.03745e-06
-3.02148e-06
-3.00414e-06
-3.00453e-06
-3.00454e-06
-3.00454e-06
-3.00454e-06
-3.00454e-06
-3.00453e-06
-3.05356e-06
-3.03599e-06
-3.02246e-06
-3.00136e-06
-3.00453e-06
-3.00454e-06
-3.00454e-06
-3.00454e-06
-3.00454e-06
-3.00453e-06
-3.05416e-06
-3.02364e-06
-3.00662e-06
-3.00452e-06
-3.00453e-06
-3.00454e-06
-3.00454e-06
-3.00454e-06
-3.00452e-06
-3.05106e-06
-3.04649e-06
-3.02744e-06
-3.02293e-06
-3.00453e-06
-3.00453e-06
-3.00453e-06
-3.00453e-06
-3.06697e-06
-3.03647e-06
-3.03262e-06
-3.02461e-06
-3.02272e-06
-3.04466e-06
-3.05354e-06
-3.05415e-06
-3.05108e-06
-3.03651e-06
-3.04797e-06
-3.03745e-06
-3.03598e-06
-3.02362e-06
-3.04649e-06
-3.03263e-06
-2.98505e-06
-2.98602e-06
-2.98075e-06
-2.97066e-06
-2.9677e-06
-2.96493e-06
-2.97019e-06
-2.99102e-06
-2.98816e-06
-2.98075e-06
-2.95262e-06
-2.9681e-06
-2.9681e-06
-2.9681e-06
-2.9681e-06
-2.9865e-06
-2.98631e-06
-2.97065e-06
-2.9681e-06
-2.9681e-06
-2.9681e-06
-2.9681e-06
-2.9681e-06
-2.9681e-06
-3.00823e-06
-3.00102e-06
-2.98505e-06
-2.9677e-06
-2.9681e-06
-2.9681e-06
-2.9681e-06
-2.9681e-06
-2.9681e-06
-2.9681e-06
-3.01712e-06
-2.99956e-06
-2.98603e-06
-2.96493e-06
-2.9681e-06
-2.9681e-06
-2.9681e-06
-2.9681e-06
-2.9681e-06
-2.9681e-06
-3.01772e-06
-2.98721e-06
-2.97019e-06
-2.9681e-06
-2.9681e-06
-2.9681e-06
-2.9681e-06
-2.9681e-06
-2.9681e-06
-3.01463e-06
-3.01006e-06
-2.99101e-06
-2.9865e-06
-2.9681e-06
-2.9681e-06
-2.9681e-06
-2.9681e-06
-3.03054e-06
-3.00004e-06
-2.99619e-06
-2.98818e-06
-2.9863e-06
-3.00823e-06
-3.01711e-06
-3.01771e-06
-3.01464e-06
-3.00008e-06
-3.01154e-06
-3.00102e-06
-2.99955e-06
-2.98719e-06
-3.01006e-06
-2.9962e-06
-2.94863e-06
-2.9496e-06
-2.94433e-06
-2.93424e-06
-2.93128e-06
-2.9285e-06
-2.93376e-06
-2.95458e-06
-2.95173e-06
-2.94432e-06
-2.91618e-06
-2.93167e-06
-2.93167e-06
-2.93167e-06
-2.93167e-06
-2.95007e-06
-2.94988e-06
-2.93422e-06
-2.93167e-06
-2.93167e-06
-2.93167e-06
-2.93167e-06
-2.93167e-06
-2.93167e-06
-2.97181e-06
-2.96459e-06
-2.94862e-06
-2.93127e-06
-2.93167e-06
-2.93167e-06
-2.93167e-06
-2.93167e-06
-2.93167e-06
-2.93167e-06
-2.98068e-06
-2.96312e-06
-2.94959e-06
-2.9285e-06
-2.93167e-06
-2.93167e-06
-2.93167e-06
-2.93167e-06
-2.93167e-06
-2.93167e-06
-2.98129e-06
-2.95078e-06
-2.93376e-06
-2.93167e-06
-2.93167e-06
-2.93167e-06
-2.93167e-06
-2.93167e-06
-2.93167e-06
-2.9782e-06
-2.97363e-06
-2.95459e-06
-2.95007e-06
-2.93167e-06
-2.93167e-06
-2.93167e-06
-2.93167e-06
-2.99411e-06
-2.96361e-06
-2.95976e-06
-2.95175e-06
-2.94987e-06
-2.97181e-06
-2.98068e-06
-2.98128e-06
-2.97822e-06
-2.96365e-06
-2.97511e-06
-2.96459e-06
-2.96312e-06
-2.95076e-06
-2.97364e-06
-2.95978e-06
-2.91219e-06
-2.91316e-06
-2.90789e-06
-2.89781e-06
-2.89484e-06
-2.89206e-06
-2.89733e-06
-2.91815e-06
-2.91529e-06
-2.90788e-06
-2.87975e-06
-2.89523e-06
-2.89523e-06
-2.89523e-06
-2.89523e-06
-2.91363e-06
-2.91345e-06
-2.89779e-06
-2.89523e-06
-2.89524e-06
-2.89524e-06
-2.89524e-06
-2.89524e-06
-2.89523e-06
-2.93537e-06
-2.92815e-06
-2.91219e-06
-2.89484e-06
-2.89523e-06
-2.89524e-06
-2.89524e-06
-2.89524e-06
-2.89524e-06
-2.89523e-06
-2.94425e-06
-2.92669e-06
-2.91316e-06
-2.89206e-06
-2.89523e-06
-2.89524e-06
-2.89524e-06
-2.89524e-06
-2.89524e-06
-2.89523e-06
-2.94486e-06
-2.91435e-06
-2.89733e-06
-2.89523e-06
-2.89524e-06
-2.89523e-06
-2.89523e-06
-2.89524e-06
-2.89523e-06
-2.94177e-06
-2.93719e-06
-2.91815e-06
-2.91364e-06
-2.89523e-06
-2.89523e-06
-2.89523e-06
-2.89523e-06
-2.95768e-06
-2.92718e-06
-2.92333e-06
-2.91532e-06
-2.91344e-06
-2.93537e-06
-2.94425e-06
-2.94485e-06
-2.94179e-06
-2.92722e-06
-2.93868e-06
-2.92816e-06
-2.92669e-06
-2.91433e-06
-2.9372e-06
-2.92334e-06
-2.87576e-06
-2.87673e-06
-2.87146e-06
-2.86138e-06
-2.85841e-06
-2.85563e-06
-2.8609e-06
-2.88172e-06
-2.87886e-06
-2.87145e-06
-2.84332e-06
-2.8588e-06
-2.8588e-06
-2.8588e-06
-2.8588e-06
-2.8772e-06
-2.87702e-06
-2.86136e-06
-2.8588e-06
-2.8588e-06
-2.8588e-06
-2.8588e-06
-2.8588e-06
-2.8588e-06
-2.89894e-06
-2.89172e-06
-2.87575e-06
-2.85841e-06
-2.8588e-06
-2.8588e-06
-2.8588e-06
-2.8588e-06
-2.8588e-06
-2.8588e-06
-2.90782e-06
-2.89026e-06
-2.87673e-06
-2.85563e-06
-2.8588e-06
-2.8588e-06
-2.8588e-06
-2.8588e-06
-2.8588e-06
-2.8588e-06
-2.90843e-06
-2.87792e-06
-2.8609e-06
-2.8588e-06
-2.8588e-06
-2.8588e-06
-2.8588e-06
-2.8588e-06
-2.8588e-06
-2.90533e-06
-2.90076e-06
-2.88172e-06
-2.87721e-06
-2.8588e-06
-2.8588e-06
-2.8588e-06
-2.8588e-06
-2.92125e-06
-2.89075e-06
-2.88689e-06
-2.87889e-06
-2.877e-06
-2.89894e-06
-2.90781e-06
-2.90842e-06
-2.90535e-06
-2.89079e-06
-2.90225e-06
-2.89172e-06
-2.89026e-06
-2.8779e-06
-2.90077e-06
-2.88691e-06
-2.83933e-06
-2.8403e-06
-2.83503e-06
-2.82494e-06
-2.82198e-06
-2.8192e-06
-2.82446e-06
-2.84529e-06
-2.84242e-06
-2.83502e-06
-2.80689e-06
-2.82237e-06
-2.82237e-06
-2.82237e-06
-2.82237e-06
-2.84077e-06
-2.84058e-06
-2.82492e-06
-2.82237e-06
-2.82237e-06
-2.82237e-06
-2.82237e-06
-2.82237e-06
-2.82237e-06
-2.86251e-06
-2.85529e-06
-2.83932e-06
-2.82198e-06
-2.82237e-06
-2.82237e-06
-2.82237e-06
-2.82237e-06
-2.82237e-06
-2.82237e-06
-2.87139e-06
-2.85383e-06
-2.8403e-06
-2.8192e-06
-2.82237e-06
-2.82237e-06
-2.82237e-06
-2.82237e-06
-2.82237e-06
-2.82237e-06
-2.87199e-06
-2.84148e-06
-2.82447e-06
-2.82237e-06
-2.82237e-06
-2.82237e-06
-2.82237e-06
-2.82237e-06
-2.82237e-06
-2.8689e-06
-2.86433e-06
-2.84529e-06
-2.84078e-06
-2.82237e-06
-2.82237e-06
-2.82237e-06
-2.82237e-06
-2.88482e-06
-2.85431e-06
-2.85046e-06
-2.84246e-06
-2.84057e-06
-2.86251e-06
-2.87138e-06
-2.87198e-06
-2.86892e-06
-2.85436e-06
-2.86581e-06
-2.85529e-06
-2.85383e-06
-2.84146e-06
-2.86434e-06
-2.85048e-06
-2.8029e-06
-2.80387e-06
-2.79859e-06
-2.78851e-06
-2.78555e-06
-2.78277e-06
-2.78803e-06
-2.80885e-06
-2.80599e-06
-2.79859e-06
-2.77045e-06
-2.78594e-06
-2.78594e-06
-2.78594e-06
-2.78594e-06
-2.80433e-06
-2.80415e-06
-2.78849e-06
-2.78594e-06
-2.78594e-06
-2.78594e-06
-2.78594e-06
-2.78594e-06
-2.78594e-06
-2.82608e-06
-2.81886e-06
-2.80289e-06
-2.78554e-06
-2.78594e-06
-2.78594e-06
-2.78594e-06
-2.78594e-06
-2.78594e-06
-2.78594e-06
-2.83495e-06
-2.81739e-06
-2.80386e-06
-2.78277e-06
-2.78594e-06
-2.78594e-06
-2.78594e-06
-2.78594e-06
-2.78594e-06
-2.78594e-06
-2.83556e-06
-2.80505e-06
-2.78803e-06
-2.78594e-06
-2.78594e-06
-2.78594e-06
-2.78594e-06
-2.78594e-06
-2.78594e-06
-2.83247e-06
-2.8279e-06
-2.80886e-06
-2.80434e-06
-2.78594e-06
-2.78594e-06
-2.78594e-06
-2.78594e-06
-2.84838e-06
-2.81788e-06
-2.81403e-06
-2.80602e-06
-2.80414e-06
-2.82607e-06
-2.83495e-06
-2.83555e-06
-2.83249e-06
-2.81792e-06
-2.82938e-06
-2.81886e-06
-2.81739e-06
-2.80503e-06
-2.82791e-06
-2.81405e-06
-2.76646e-06
-2.76743e-06
-2.76216e-06
-2.75208e-06
-2.74911e-06
-2.74633e-06
-2.7516e-06
-2.77242e-06
-2.76956e-06
-2.76215e-06
-2.73402e-06
-2.7495e-06
-2.7495e-06
-2.7495e-06
-2.7495e-06
-2.7679e-06
-2.76772e-06
-2.75206e-06
-2.7495e-06
-2.7495e-06
-2.7495e-06
-2.7495e-06
-2.7495e-06
-2.7495e-06
-2.78964e-06
-2.78242e-06
-2.76645e-06
-2.74911e-06
-2.7495e-06
-2.7495e-06
-2.7495e-06
-2.7495e-06
-2.7495e-06
-2.7495e-06
-2.79852e-06
-2.78096e-06
-2.76743e-06
-2.74633e-06
-2.7495e-06
-2.7495e-06
-2.7495e-06
-2.7495e-06
-2.7495e-06
-2.7495e-06
-2.79913e-06
-2.76862e-06
-2.7516e-06
-2.7495e-06
-2.7495e-06
-2.7495e-06
-2.7495e-06
-2.7495e-06
-2.7495e-06
-2.79603e-06
-2.79146e-06
-2.77242e-06
-2.76791e-06
-2.7495e-06
-2.7495e-06
-2.7495e-06
-2.7495e-06
-2.81195e-06
-2.78145e-06
-2.77759e-06
-2.76959e-06
-2.7677e-06
-2.78964e-06
-2.79851e-06
-2.79912e-06
-2.79606e-06
-2.78149e-06
-2.79295e-06
-2.78242e-06
-2.78096e-06
-2.7686e-06
-2.79147e-06
-2.77761e-06
-2.73003e-06
-2.731e-06
-2.72573e-06
-2.71565e-06
-2.71268e-06
-2.7099e-06
-2.71517e-06
-2.73599e-06
-2.73313e-06
-2.72572e-06
-2.69759e-06
-2.71307e-06
-2.71307e-06
-2.71307e-06
-2.71307e-06
-2.73147e-06
-2.73129e-06
-2.71563e-06
-2.71307e-06
-2.71307e-06
-2.71307e-06
-2.71307e-06
-2.71307e-06
-2.71307e-06
-2.75321e-06
-2.74599e-06
-2.73002e-06
-2.71268e-06
-2.71307e-06
-2.71307e-06
-2.71307e-06
-2.71307e-06
-2.71307e-06
-2.71307e-06
-2.76209e-06
-2.74453e-06
-2.731e-06
-2.7099e-06
-2.71307e-06
-2.71307e-06
-2.71307e-06
-2.71307e-06
-2.71307e-06
-2.71307e-06
-2.7627e-06
-2.73219e-06
-2.71517e-06
-2.71307e-06
-2.71307e-06
-2.71307e-06
-2.71307e-06
-2.71307e-06
-2.71307e-06
-2.7596e-06
-2.75503e-06
-2.73599e-06
-2.73148e-06
-2.71307e-06
-2.71307e-06
-2.71307e-06
-2.71307e-06
-2.77552e-06
-2.74502e-06
-2.74116e-06
-2.73316e-06
-2.73128e-06
-2.75321e-06
-2.76208e-06
-2.76269e-06
-2.75963e-06
-2.74506e-06
-2.75652e-06
-2.746e-06
-2.74453e-06
-2.73217e-06
-2.75504e-06
-2.74118e-06
-2.6936e-06
-2.69457e-06
-2.6893e-06
-2.67922e-06
-2.67625e-06
-2.67347e-06
-2.67874e-06
-2.69956e-06
-2.6967e-06
-2.6893e-06
-2.66116e-06
-2.67665e-06
-2.67665e-06
-2.67665e-06
-2.67665e-06
-2.69504e-06
-2.69486e-06
-2.6792e-06
-2.67665e-06
-2.67665e-06
-2.67665e-06
-2.67665e-06
-2.67665e-06
-2.67665e-06
-2.71679e-06
-2.70957e-06
-2.6936e-06
-2.67625e-06
-2.67665e-06
-2.67665e-06
-2.67665e-06
-2.67665e-06
-2.67665e-06
-2.67665e-06
-2.72566e-06
-2.7081e-06
-2.69457e-06
-2.67348e-06
-2.67665e-06
-2.67665e-06
-2.67665e-06
-2.67665e-06
-2.67665e-06
-2.67665e-06
-2.72627e-06
-2.69576e-06
-2.67874e-06
-2.67665e-06
-2.67665e-06
-2.67665e-06
-2.67665e-06
-2.67665e-06
-2.67665e-06
-2.72318e-06
-2.71861e-06
-2.69957e-06
-2.69505e-06
-2.67665e-06
-2.67665e-06
-2.67665e-06
-2.67665e-06
-2.73909e-06
-2.70859e-06
-2.70474e-06
-2.69673e-06
-2.69485e-06
-2.71678e-06
-2.72566e-06
-2.72626e-06
-2.7232e-06
-2.70863e-06
-2.72009e-06
-2.70957e-06
-2.7081e-06
-2.69575e-06
-2.71861e-06
-2.70475e-06
-2.65717e-06
-2.65814e-06
-2.65287e-06
-2.64279e-06
-2.63982e-06
-2.63704e-06
-2.64231e-06
-2.66314e-06
-2.66027e-06
-2.65286e-06
-2.62473e-06
-2.64022e-06
-2.64022e-06
-2.64022e-06
-2.64022e-06
-2.65861e-06
-2.65843e-06
-2.64277e-06
-2.64022e-06
-2.64022e-06
-2.64022e-06
-2.64022e-06
-2.64022e-06
-2.64022e-06
-2.68036e-06
-2.67314e-06
-2.65717e-06
-2.63982e-06
-2.64022e-06
-2.64022e-06
-2.64022e-06
-2.64022e-06
-2.64022e-06
-2.64022e-06
-2.68923e-06
-2.67167e-06
-2.65814e-06
-2.63705e-06
-2.64022e-06
-2.64022e-06
-2.64022e-06
-2.64022e-06
-2.64022e-06
-2.64022e-06
-2.68984e-06
-2.65933e-06
-2.64231e-06
-2.64022e-06
-2.64022e-06
-2.64022e-06
-2.64022e-06
-2.64022e-06
-2.64022e-06
-2.68675e-06
-2.68218e-06
-2.66313e-06
-2.65862e-06
-2.64022e-06
-2.64022e-06
-2.64022e-06
-2.64022e-06
-2.70266e-06
-2.67216e-06
-2.66831e-06
-2.6603e-06
-2.65842e-06
-2.68035e-06
-2.68922e-06
-2.68983e-06
-2.68677e-06
-2.6722e-06
-2.68366e-06
-2.67314e-06
-2.67167e-06
-2.65931e-06
-2.68219e-06
-2.66832e-06
-2.62074e-06
-2.62171e-06
-2.61644e-06
-2.60636e-06
-2.60339e-06
-2.60061e-06
-2.60588e-06
-2.6267e-06
-2.62385e-06
-2.61643e-06
-2.5883e-06
-2.60379e-06
-2.60379e-06
-2.60379e-06
-2.60379e-06
-2.62219e-06
-2.622e-06
-2.60634e-06
-2.60379e-06
-2.60379e-06
-2.60379e-06
-2.60379e-06
-2.60379e-06
-2.60379e-06
-2.64393e-06
-2.63671e-06
-2.62074e-06
-2.60339e-06
-2.60379e-06
-2.60379e-06
-2.60379e-06
-2.60379e-06
-2.60379e-06
-2.60379e-06
-2.6528e-06
-2.63524e-06
-2.62171e-06
-2.60061e-06
-2.60379e-06
-2.60379e-06
-2.60379e-06
-2.60379e-06
-2.60379e-06
-2.60379e-06
-2.65341e-06
-2.6229e-06
-2.60588e-06
-2.60379e-06
-2.60379e-06
-2.60379e-06
-2.60379e-06
-2.60379e-06
-2.60379e-06
-2.65032e-06
-2.64575e-06
-2.6267e-06
-2.62219e-06
-2.60379e-06
-2.60379e-06
-2.60379e-06
-2.60379e-06
-2.66623e-06
-2.63573e-06
-2.63188e-06
-2.62387e-06
-2.62199e-06
-2.64392e-06
-2.65279e-06
-2.65341e-06
-2.65034e-06
-2.63577e-06
-2.64723e-06
-2.63671e-06
-2.63524e-06
-2.62289e-06
-2.64575e-06
-2.63189e-06
-2.58432e-06
-2.58528e-06
-2.58001e-06
-2.56993e-06
-2.56696e-06
-2.56418e-06
-2.56945e-06
-2.59028e-06
-2.58742e-06
-2.58e-06
-2.55187e-06
-2.56735e-06
-2.56735e-06
-2.56735e-06
-2.56735e-06
-2.58575e-06
-2.58557e-06
-2.56991e-06
-2.56735e-06
-2.56735e-06
-2.56735e-06
-2.56735e-06
-2.56735e-06
-2.56735e-06
-2.6075e-06
-2.60028e-06
-2.5843e-06
-2.56696e-06
-2.56735e-06
-2.56735e-06
-2.56735e-06
-2.56735e-06
-2.56735e-06
-2.56735e-06
-2.61637e-06
-2.59881e-06
-2.58528e-06
-2.56418e-06
-2.56735e-06
-2.56735e-06
-2.56735e-06
-2.56735e-06
-2.56735e-06
-2.56735e-06
-2.61698e-06
-2.58647e-06
-2.56945e-06
-2.56735e-06
-2.56735e-06
-2.56735e-06
-2.56735e-06
-2.56735e-06
-2.56735e-06
-2.61389e-06
-2.60932e-06
-2.59027e-06
-2.58576e-06
-2.56735e-06
-2.56735e-06
-2.56735e-06
-2.56735e-06
-2.6298e-06
-2.5993e-06
-2.59545e-06
-2.58744e-06
-2.58556e-06
-2.60749e-06
-2.61636e-06
-2.61698e-06
-2.61391e-06
-2.59934e-06
-2.6108e-06
-2.60028e-06
-2.59881e-06
-2.58646e-06
-2.60932e-06
-2.59546e-06
-2.54788e-06
-2.54885e-06
-2.54358e-06
-2.53349e-06
-2.53053e-06
-2.52775e-06
-2.53302e-06
-2.55384e-06
-2.55098e-06
-2.54357e-06
-2.51544e-06
-2.53092e-06
-2.53092e-06
-2.53092e-06
-2.53092e-06
-2.54932e-06
-2.54914e-06
-2.53347e-06
-2.53092e-06
-2.53092e-06
-2.53092e-06
-2.53092e-06
-2.53092e-06
-2.53092e-06
-2.57106e-06
-2.56384e-06
-2.54787e-06
-2.53053e-06
-2.53092e-06
-2.53092e-06
-2.53092e-06
-2.53092e-06
-2.53092e-06
-2.53092e-06
-2.57994e-06
-2.56238e-06
-2.54885e-06
-2.52775e-06
-2.53092e-06
-2.53092e-06
-2.53092e-06
-2.53092e-06
-2.53092e-06
-2.53092e-06
-2.58054e-06
-2.55003e-06
-2.53302e-06
-2.53092e-06
-2.53092e-06
-2.53092e-06
-2.53092e-06
-2.53092e-06
-2.53092e-06
-2.57745e-06
-2.57288e-06
-2.55384e-06
-2.54933e-06
-2.53092e-06
-2.53092e-06
-2.53092e-06
-2.53092e-06
-2.59337e-06
-2.56286e-06
-2.55901e-06
-2.55101e-06
-2.54912e-06
-2.57106e-06
-2.57993e-06
-2.58054e-06
-2.57748e-06
-2.56291e-06
-2.57436e-06
-2.56384e-06
-2.56238e-06
-2.55002e-06
-2.57288e-06
-2.55902e-06
-2.51145e-06
-2.51242e-06
-2.50715e-06
-2.49706e-06
-2.49409e-06
-2.49132e-06
-2.49658e-06
-2.51741e-06
-2.51455e-06
-2.50714e-06
-2.479e-06
-2.49449e-06
-2.49449e-06
-2.49449e-06
-2.49449e-06
-2.51288e-06
-2.5127e-06
-2.49704e-06
-2.49449e-06
-2.49449e-06
-2.49449e-06
-2.49449e-06
-2.49449e-06
-2.49449e-06
-2.53463e-06
-2.5274e-06
-2.51144e-06
-2.49409e-06
-2.49449e-06
-2.49449e-06
-2.49449e-06
-2.49449e-06
-2.49449e-06
-2.49449e-06
-2.5435e-06
-2.52594e-06
-2.51241e-06
-2.49132e-06
-2.49449e-06
-2.49449e-06
-2.49449e-06
-2.49449e-06
-2.49449e-06
-2.49449e-06
-2.54411e-06
-2.5136e-06
-2.49658e-06
-2.49449e-06
-2.49449e-06
-2.49449e-06
-2.49449e-06
-2.49449e-06
-2.49449e-06
-2.54102e-06
-2.53645e-06
-2.51741e-06
-2.51289e-06
-2.49449e-06
-2.49449e-06
-2.49449e-06
-2.49449e-06
-2.55693e-06
-2.52643e-06
-2.52258e-06
-2.51457e-06
-2.51269e-06
-2.53463e-06
-2.5435e-06
-2.54411e-06
-2.54104e-06
-2.52647e-06
-2.53793e-06
-2.52741e-06
-2.52594e-06
-2.51359e-06
-2.53645e-06
-2.52259e-06
-2.47501e-06
-2.47598e-06
-2.47071e-06
-2.46062e-06
-2.45766e-06
-2.45488e-06
-2.46015e-06
-2.48097e-06
-2.47812e-06
-2.4707e-06
-2.44257e-06
-2.45805e-06
-2.45805e-06
-2.45805e-06
-2.45805e-06
-2.47645e-06
-2.47627e-06
-2.46061e-06
-2.45805e-06
-2.45805e-06
-2.45805e-06
-2.45805e-06
-2.45805e-06
-2.45805e-06
-2.4982e-06
-2.49097e-06
-2.47501e-06
-2.45766e-06
-2.45805e-06
-2.45805e-06
-2.45805e-06
-2.45805e-06
-2.45805e-06
-2.45805e-06
-2.50707e-06
-2.48951e-06
-2.47598e-06
-2.45488e-06
-2.45805e-06
-2.45805e-06
-2.45805e-06
-2.45805e-06
-2.45805e-06
-2.45805e-06
-2.50768e-06
-2.47717e-06
-2.46015e-06
-2.45805e-06
-2.45805e-06
-2.45805e-06
-2.45805e-06
-2.45805e-06
-2.45805e-06
-2.50459e-06
-2.50001e-06
-2.48097e-06
-2.47646e-06
-2.45805e-06
-2.45805e-06
-2.45805e-06
-2.45805e-06
-2.5205e-06
-2.49e-06
-2.48615e-06
-2.47814e-06
-2.47626e-06
-2.49819e-06
-2.50706e-06
-2.50767e-06
-2.50461e-06
-2.49004e-06
-2.5015e-06
-2.49098e-06
-2.48951e-06
-2.47716e-06
-2.50002e-06
-2.48616e-06
-2.43858e-06
-2.43955e-06
-2.43428e-06
-2.42419e-06
-2.42123e-06
-2.41845e-06
-2.42372e-06
-2.44454e-06
-2.44168e-06
-2.43427e-06
-2.40614e-06
-2.42162e-06
-2.42162e-06
-2.42162e-06
-2.42162e-06
-2.44002e-06
-2.43984e-06
-2.42418e-06
-2.42162e-06
-2.42162e-06
-2.42162e-06
-2.42162e-06
-2.42162e-06
-2.42162e-06
-2.46177e-06
-2.45454e-06
-2.43857e-06
-2.42123e-06
-2.42162e-06
-2.42162e-06
-2.42162e-06
-2.42162e-06
-2.42162e-06
-2.42162e-06
-2.47064e-06
-2.45308e-06
-2.43955e-06
-2.41845e-06
-2.42162e-06
-2.42162e-06
-2.42162e-06
-2.42162e-06
-2.42162e-06
-2.42162e-06
-2.47125e-06
-2.44074e-06
-2.42372e-06
-2.42162e-06
-2.42162e-06
-2.42162e-06
-2.42162e-06
-2.42162e-06
-2.42162e-06
-2.46815e-06
-2.46358e-06
-2.44454e-06
-2.44003e-06
-2.42162e-06
-2.42162e-06
-2.42162e-06
-2.42162e-06
-2.48407e-06
-2.45357e-06
-2.44971e-06
-2.44171e-06
-2.43983e-06
-2.46176e-06
-2.47063e-06
-2.47124e-06
-2.46818e-06
-2.45361e-06
-2.46507e-06
-2.45455e-06
-2.45308e-06
-2.44073e-06
-2.46358e-06
-2.44972e-06
-2.40215e-06
-2.40312e-06
-2.39785e-06
-2.38776e-06
-2.3848e-06
-2.38202e-06
-2.38729e-06
-2.40812e-06
-2.40526e-06
-2.39784e-06
-2.36971e-06
-2.38519e-06
-2.3852e-06
-2.38519e-06
-2.3852e-06
-2.40359e-06
-2.40341e-06
-2.38775e-06
-2.3852e-06
-2.38519e-06
-2.3852e-06
-2.38519e-06
-2.38519e-06
-2.38519e-06
-2.42534e-06
-2.41811e-06
-2.40214e-06
-2.3848e-06
-2.3852e-06
-2.38519e-06
-2.3852e-06
-2.3852e-06
-2.3852e-06
-2.38519e-06
-2.43421e-06
-2.41665e-06
-2.40312e-06
-2.38202e-06
-2.3852e-06
-2.38519e-06
-2.3852e-06
-2.38519e-06
-2.38519e-06
-2.38519e-06
-2.43482e-06
-2.40431e-06
-2.38729e-06
-2.3852e-06
-2.3852e-06
-2.3852e-06
-2.3852e-06
-2.3852e-06
-2.38519e-06
-2.43172e-06
-2.42715e-06
-2.40811e-06
-2.4036e-06
-2.38519e-06
-2.3852e-06
-2.3852e-06
-2.3852e-06
-2.44764e-06
-2.41714e-06
-2.41328e-06
-2.40528e-06
-2.4034e-06
-2.42533e-06
-2.4342e-06
-2.43481e-06
-2.43175e-06
-2.41718e-06
-2.42864e-06
-2.41812e-06
-2.41665e-06
-2.4043e-06
-2.42715e-06
-2.41329e-06
-2.36572e-06
-2.36669e-06
-2.36142e-06
-2.35133e-06
-2.34837e-06
-2.34559e-06
-2.35086e-06
-2.37169e-06
-2.36883e-06
-2.36141e-06
-2.33328e-06
-2.34877e-06
-2.34877e-06
-2.34877e-06
-2.34877e-06
-2.36717e-06
-2.36698e-06
-2.35132e-06
-2.34877e-06
-2.34877e-06
-2.34877e-06
-2.34877e-06
-2.34877e-06
-2.34877e-06
-2.38891e-06
-2.38168e-06
-2.36572e-06
-2.34837e-06
-2.34877e-06
-2.34877e-06
-2.34877e-06
-2.34877e-06
-2.34877e-06
-2.34877e-06
-2.39778e-06
-2.38022e-06
-2.36669e-06
-2.3456e-06
-2.34877e-06
-2.34877e-06
-2.34877e-06
-2.34877e-06
-2.34877e-06
-2.34877e-06
-2.39839e-06
-2.36788e-06
-2.35086e-06
-2.34877e-06
-2.34877e-06
-2.34877e-06
-2.34877e-06
-2.34877e-06
-2.34877e-06
-2.3953e-06
-2.39072e-06
-2.37168e-06
-2.36717e-06
-2.34877e-06
-2.34877e-06
-2.34877e-06
-2.34877e-06
-2.41121e-06
-2.38071e-06
-2.37686e-06
-2.36885e-06
-2.36697e-06
-2.38891e-06
-2.39778e-06
-2.39839e-06
-2.39532e-06
-2.38075e-06
-2.39221e-06
-2.38169e-06
-2.38022e-06
-2.36787e-06
-2.39073e-06
-2.37687e-06
-2.32929e-06
-2.33026e-06
-2.325e-06
-2.31491e-06
-2.31194e-06
-2.30917e-06
-2.31443e-06
-2.33526e-06
-2.3324e-06
-2.32499e-06
-2.29686e-06
-2.31234e-06
-2.31234e-06
-2.31234e-06
-2.31234e-06
-2.33074e-06
-2.33055e-06
-2.31489e-06
-2.31234e-06
-2.31234e-06
-2.31234e-06
-2.31234e-06
-2.31234e-06
-2.31234e-06
-2.35248e-06
-2.34526e-06
-2.32929e-06
-2.31194e-06
-2.31234e-06
-2.31234e-06
-2.31234e-06
-2.31234e-06
-2.31234e-06
-2.31234e-06
-2.36135e-06
-2.34379e-06
-2.33027e-06
-2.30917e-06
-2.31234e-06
-2.31234e-06
-2.31234e-06
-2.31234e-06
-2.31234e-06
-2.31234e-06
-2.36196e-06
-2.33145e-06
-2.31443e-06
-2.31234e-06
-2.31234e-06
-2.31234e-06
-2.31234e-06
-2.31234e-06
-2.31234e-06
-2.35887e-06
-2.3543e-06
-2.33526e-06
-2.33074e-06
-2.31234e-06
-2.31234e-06
-2.31234e-06
-2.31234e-06
-2.37478e-06
-2.34428e-06
-2.34043e-06
-2.33242e-06
-2.33054e-06
-2.35248e-06
-2.36135e-06
-2.36196e-06
-2.35889e-06
-2.34432e-06
-2.35578e-06
-2.34526e-06
-2.34379e-06
-2.33144e-06
-2.3543e-06
-2.34044e-06
-2.29287e-06
-2.29384e-06
-2.28857e-06
-2.27848e-06
-2.27551e-06
-2.27274e-06
-2.278e-06
-2.29883e-06
-2.29597e-06
-2.28856e-06
-2.26042e-06
-2.27591e-06
-2.27591e-06
-2.27591e-06
-2.27591e-06
-2.29431e-06
-2.29412e-06
-2.27846e-06
-2.27591e-06
-2.27591e-06
-2.27591e-06
-2.27591e-06
-2.27591e-06
-2.27591e-06
-2.31605e-06
-2.30883e-06
-2.29286e-06
-2.27551e-06
-2.27591e-06
-2.27591e-06