/*--------------------------------*- C++ -*----------------------------------*\
| =========                 |                                                 |
| \\      /  F ield         | OpenFOAM: The Open Source CFD Toolbox           |
|  \\    /   O peration     | Version:  v2012                                 |
|   \\  /    A nd           | Website:  www.openfoam.com                      |
|    \\/     M anipulation  |                                                 |
\*---------------------------------------------------------------------------*/
FoamFile
{
    version     2.0;
    format      ascii;
    class       volScalarField;
    location    "0.005";
    object      p;
}
// * * * * * * * * * * * * * * * * * * * * * * * * * * * * * * * * * * * * * //

dimensions      [0 2 -2 0 0 0 0];


internalField   nonuniform List<scalar> 
189320
(
-0.00483662
-0.0048333
-0.00482792
-0.00482584
-0.00482679
-0.00482693
-0.00482644
-0.00482841
-0.00482715
-0.00482792
-0.0048239
-0.00482406
-0.0048243
-0.00482436
-0.0048242
-0.00482392
-0.004824
-0.00482584
-0.00482406
-0.00482307
-0.00482261
-0.00482253
-0.00482278
-0.00482348
-0.00482481
-0.00482972
-0.00483665
-0.0048268
-0.00482431
-0.00482261
-0.00482172
-0.00482154
-0.00482207
-0.00482335
-0.00482544
-0.00483073
-0.00483331
-0.00482694
-0.00482436
-0.00482253
-0.00482154
-0.00482135
-0.00482193
-0.00482333
-0.00482556
-0.00482846
-0.00482643
-0.0048242
-0.00482278
-0.00482206
-0.00482193
-0.00482234
-0.00482339
-0.00482519
-0.00483045
-0.00482841
-0.00482392
-0.00482348
-0.00482335
-0.00482333
-0.00482339
-0.00482364
-0.00482432
-0.00482969
-0.00482714
-0.00482399
-0.00482481
-0.00482544
-0.00482556
-0.00482519
-0.00482432
-0.00482589
-0.00482971
-0.00483071
-0.00482845
-0.00483045
-0.00482968
-0.00477047
-0.00477007
-0.00476946
-0.00476426
-0.00476391
-0.0047639
-0.00476402
-0.00476843
-0.00476944
-0.00476945
-0.00476303
-0.00475466
-0.00475472
-0.00475472
-0.00475466
-0.00476155
-0.00476419
-0.00476426
-0.00475466
-0.00475472
-0.00475476
-0.00475476
-0.00475472
-0.00475466
-0.00476248
-0.00476913
-0.00477047
-0.00476391
-0.00475472
-0.00475476
-0.00475478
-0.00475478
-0.00475476
-0.00475472
-0.00476198
-0.00476847
-0.00477007
-0.0047639
-0.00475472
-0.00475476
-0.00475478
-0.00475478
-0.00475476
-0.00475472
-0.00476194
-0.00476516
-0.00476401
-0.00475466
-0.00475472
-0.00475476
-0.00475476
-0.00475472
-0.00475466
-0.00476212
-0.00476873
-0.00476843
-0.00476155
-0.00475466
-0.00475472
-0.00475472
-0.00475466
-0.00476005
-0.00476338
-0.00476951
-0.00476944
-0.00476419
-0.00476248
-0.00476198
-0.00476194
-0.00476212
-0.00476338
-0.00476751
-0.00476912
-0.00476847
-0.00476516
-0.00476872
-0.00476951
-0.00471865
-0.00471819
-0.00471801
-0.00471268
-0.00471228
-0.00471226
-0.0047124
-0.00471695
-0.00471801
-0.00471801
-0.00471162
-0.00470265
-0.00470265
-0.00470265
-0.00470265
-0.00471012
-0.00471273
-0.00471268
-0.00470265
-0.00470263
-0.00470262
-0.00470262
-0.00470263
-0.00470265
-0.00471097
-0.00471755
-0.00471865
-0.00471228
-0.00470265
-0.00470262
-0.0047026
-0.0047026
-0.00470262
-0.00470265
-0.00471043
-0.00471681
-0.00471819
-0.00471226
-0.00470265
-0.00470262
-0.0047026
-0.0047026
-0.00470262
-0.00470265
-0.00471038
-0.00471341
-0.0047124
-0.00470265
-0.00470263
-0.00470262
-0.00470262
-0.00470263
-0.00470265
-0.00471059
-0.00471708
-0.00471695
-0.00471012
-0.00470265
-0.00470265
-0.00470265
-0.00470265
-0.00470858
-0.00471191
-0.00471797
-0.00471801
-0.00471273
-0.00471097
-0.00471043
-0.00471038
-0.00471059
-0.00471191
-0.00471611
-0.00471755
-0.00471681
-0.00471341
-0.00471708
-0.00471797
-0.00466725
-0.00466679
-0.00466661
-0.00466128
-0.00466088
-0.00466087
-0.004661
-0.00466556
-0.0046666
-0.00466661
-0.00466022
-0.00465117
-0.00465117
-0.00465117
-0.00465117
-0.00465873
-0.00466132
-0.00466128
-0.00465117
-0.00465116
-0.00465115
-0.00465115
-0.00465116
-0.00465117
-0.00465958
-0.00466615
-0.00466725
-0.00466088
-0.00465117
-0.00465115
-0.00465114
-0.00465114
-0.00465115
-0.00465117
-0.00465905
-0.00466543
-0.00466679
-0.00466087
-0.00465117
-0.00465115
-0.00465114
-0.00465114
-0.00465115
-0.00465117
-0.00465901
-0.00466201
-0.004661
-0.00465117
-0.00465116
-0.00465115
-0.00465115
-0.00465116
-0.00465117
-0.0046592
-0.0046657
-0.00466556
-0.00465873
-0.00465117
-0.00465117
-0.00465117
-0.00465117
-0.00465718
-0.00466052
-0.00466658
-0.0046666
-0.00466132
-0.00465958
-0.00465905
-0.00465901
-0.0046592
-0.00466052
-0.00466472
-0.00466615
-0.00466543
-0.00466201
-0.0046657
-0.00466658
-0.00461599
-0.00461554
-0.00461534
-0.00461002
-0.00460963
-0.00460962
-0.00460975
-0.0046143
-0.00461534
-0.00461534
-0.00460896
-0.00459989
-0.00459989
-0.00459989
-0.00459989
-0.00460748
-0.00461006
-0.00461002
-0.00459989
-0.00459988
-0.00459988
-0.00459988
-0.00459988
-0.00459989
-0.00460834
-0.0046149
-0.00461599
-0.00460963
-0.00459989
-0.00459988
-0.00459987
-0.00459987
-0.00459988
-0.00459989
-0.00460781
-0.00461418
-0.00461554
-0.00460962
-0.00459989
-0.00459988
-0.00459987
-0.00459987
-0.00459988
-0.00459989
-0.00460777
-0.00461076
-0.00460975
-0.00459989
-0.00459988
-0.00459988
-0.00459988
-0.00459989
-0.00459989
-0.00460796
-0.00461445
-0.0046143
-0.00460747
-0.00459989
-0.00459989
-0.00459989
-0.00459989
-0.00460593
-0.00460926
-0.00461532
-0.00461534
-0.00461006
-0.00460834
-0.00460781
-0.00460777
-0.00460796
-0.00460926
-0.00461345
-0.0046149
-0.00461418
-0.00461076
-0.00461445
-0.00461532
-0.0045648
-0.00456435
-0.00456415
-0.00455884
-0.00455845
-0.00455844
-0.00455857
-0.00456311
-0.00456415
-0.00456415
-0.00455778
-0.0045487
-0.0045487
-0.0045487
-0.0045487
-0.00455629
-0.00455888
-0.00455884
-0.0045487
-0.00454869
-0.00454869
-0.00454869
-0.00454869
-0.0045487
-0.00455715
-0.00456371
-0.0045648
-0.00455845
-0.0045487
-0.00454869
-0.00454869
-0.00454869
-0.00454869
-0.0045487
-0.00455663
-0.00456299
-0.00456435
-0.00455844
-0.0045487
-0.00454869
-0.00454869
-0.00454869
-0.00454869
-0.0045487
-0.00455659
-0.00455958
-0.00455857
-0.0045487
-0.00454869
-0.00454869
-0.00454869
-0.00454869
-0.0045487
-0.00455678
-0.00456326
-0.00456311
-0.00455629
-0.0045487
-0.0045487
-0.0045487
-0.0045487
-0.00455475
-0.00455807
-0.00456413
-0.00456415
-0.00455888
-0.00455715
-0.00455663
-0.00455659
-0.00455678
-0.00455807
-0.00456226
-0.00456371
-0.00456299
-0.00455958
-0.00456326
-0.00456413
-0.00451364
-0.00451319
-0.00451299
-0.00450768
-0.00450729
-0.00450729
-0.00450741
-0.00451195
-0.00451299
-0.00451299
-0.00450662
-0.00449753
-0.00449753
-0.00449753
-0.00449753
-0.00450513
-0.00450772
-0.00450768
-0.00449754
-0.00449753
-0.00449753
-0.00449753
-0.00449753
-0.00449753
-0.004506
-0.00451255
-0.00451364
-0.00450729
-0.00449753
-0.00449753
-0.00449753
-0.00449753
-0.00449753
-0.00449753
-0.00450548
-0.00451183
-0.00451319
-0.00450729
-0.00449753
-0.00449753
-0.00449753
-0.00449753
-0.00449753
-0.00449753
-0.00450544
-0.00450842
-0.00450741
-0.00449754
-0.00449753
-0.00449753
-0.00449753
-0.00449753
-0.00449754
-0.00450562
-0.0045121
-0.00451195
-0.00450513
-0.00449754
-0.00449753
-0.00449754
-0.00449754
-0.00450359
-0.00450692
-0.00451297
-0.00451299
-0.00450772
-0.004506
-0.00450548
-0.00450544
-0.00450562
-0.00450692
-0.00451111
-0.00451255
-0.00451183
-0.00450842
-0.0045121
-0.00451297
-0.0044625
-0.00446205
-0.00446185
-0.00445654
-0.00445615
-0.00445614
-0.00445627
-0.00446081
-0.00446184
-0.00446185
-0.00445548
-0.00444639
-0.00444639
-0.00444639
-0.00444639
-0.00445399
-0.00445657
-0.00445654
-0.00444639
-0.00444639
-0.00444639
-0.00444639
-0.00444639
-0.00444639
-0.00445485
-0.00446141
-0.0044625
-0.00445615
-0.00444639
-0.00444639
-0.00444639
-0.00444639
-0.00444639
-0.00444639
-0.00445433
-0.00446069
-0.00446205
-0.00445614
-0.00444639
-0.00444639
-0.00444639
-0.00444639
-0.00444639
-0.00444639
-0.00445429
-0.00445728
-0.00445627
-0.00444639
-0.00444639
-0.00444639
-0.00444639
-0.00444639
-0.00444639
-0.00445448
-0.00446096
-0.00446081
-0.00445399
-0.00444639
-0.00444639
-0.00444639
-0.00444639
-0.00445245
-0.00445577
-0.00446182
-0.00446184
-0.00445657
-0.00445485
-0.00445433
-0.00445429
-0.00445448
-0.00445577
-0.00445996
-0.00446141
-0.00446069
-0.00445728
-0.00446096
-0.00446182
-0.00441136
-0.00441091
-0.00441071
-0.0044054
-0.00440501
-0.004405
-0.00440513
-0.00440967
-0.0044107
-0.00441071
-0.00440434
-0.00439525
-0.00439525
-0.00439525
-0.00439525
-0.00440285
-0.00440543
-0.0044054
-0.00439525
-0.00439525
-0.00439525
-0.00439525
-0.00439525
-0.00439525
-0.00440371
-0.00441027
-0.00441136
-0.00440501
-0.00439525
-0.00439525
-0.00439525
-0.00439525
-0.00439525
-0.00439525
-0.00440319
-0.00440955
-0.00441091
-0.004405
-0.00439525
-0.00439525
-0.00439525
-0.00439525
-0.00439525
-0.00439525
-0.00440316
-0.00440614
-0.00440513
-0.00439525
-0.00439525
-0.00439525
-0.00439525
-0.00439525
-0.00439525
-0.00440334
-0.00440982
-0.00440967
-0.00440285
-0.00439525
-0.00439525
-0.00439525
-0.00439525
-0.00440131
-0.00440463
-0.00441068
-0.0044107
-0.00440543
-0.00440371
-0.00440319
-0.00440316
-0.00440334
-0.00440463
-0.00440882
-0.00441027
-0.00440955
-0.00440614
-0.00440982
-0.00441068
-0.00436022
-0.00435977
-0.00435957
-0.00435426
-0.00435388
-0.00435387
-0.00435399
-0.00435853
-0.00435957
-0.00435957
-0.0043532
-0.00434411
-0.00434411
-0.00434411
-0.00434411
-0.00435172
-0.0043543
-0.00435426
-0.00434411
-0.00434411
-0.00434411
-0.00434411
-0.00434411
-0.00434411
-0.00435258
-0.00435913
-0.00436022
-0.00435388
-0.00434411
-0.00434411
-0.00434411
-0.00434411
-0.00434411
-0.00434411
-0.00435206
-0.00435841
-0.00435977
-0.00435387
-0.00434411
-0.00434411
-0.00434411
-0.00434411
-0.00434411
-0.00434411
-0.00435202
-0.004355
-0.00435399
-0.00434411
-0.00434411
-0.00434411
-0.00434411
-0.00434411
-0.00434411
-0.0043522
-0.00435869
-0.00435853
-0.00435172
-0.00434411
-0.00434411
-0.00434411
-0.00434411
-0.00435017
-0.0043535
-0.00435955
-0.00435957
-0.0043543
-0.00435258
-0.00435206
-0.00435202
-0.0043522
-0.0043535
-0.00435769
-0.00435913
-0.00435841
-0.004355
-0.00435869
-0.00435955
-0.00430909
-0.00430864
-0.00430844
-0.00430313
-0.00430274
-0.00430274
-0.00430286
-0.0043074
-0.00430843
-0.00430844
-0.00430207
-0.00429298
-0.00429298
-0.00429298
-0.00429298
-0.00430058
-0.00430317
-0.00430313
-0.00429298
-0.00429298
-0.00429298
-0.00429298
-0.00429298
-0.00429298
-0.00430145
-0.004308
-0.00430909
-0.00430274
-0.00429298
-0.00429298
-0.00429298
-0.00429298
-0.00429298
-0.00429298
-0.00430093
-0.00430728
-0.00430864
-0.00430274
-0.00429298
-0.00429298
-0.00429298
-0.00429298
-0.00429298
-0.00429298
-0.00430089
-0.00430387
-0.00430286
-0.00429298
-0.00429298
-0.00429298
-0.00429298
-0.00429298
-0.00429298
-0.00430107
-0.00430755
-0.0043074
-0.00430058
-0.00429298
-0.00429298
-0.00429298
-0.00429298
-0.00429904
-0.00430236
-0.00430841
-0.00430843
-0.00430317
-0.00430145
-0.00430093
-0.00430089
-0.00430107
-0.00430236
-0.00430655
-0.004308
-0.00430728
-0.00430387
-0.00430755
-0.00430841
-0.00425796
-0.00425751
-0.00425731
-0.004252
-0.00425161
-0.0042516
-0.00425173
-0.00425627
-0.0042573
-0.00425731
-0.00425094
-0.00424185
-0.00424185
-0.00424185
-0.00424185
-0.00424945
-0.00425203
-0.004252
-0.00424185
-0.00424185
-0.00424185
-0.00424185
-0.00424185
-0.00424185
-0.00425031
-0.00425687
-0.00425796
-0.00425161
-0.00424185
-0.00424185
-0.00424185
-0.00424185
-0.00424185
-0.00424185
-0.0042498
-0.00425615
-0.00425751
-0.0042516
-0.00424185
-0.00424185
-0.00424185
-0.00424185
-0.00424185
-0.00424185
-0.00424976
-0.00425274
-0.00425173
-0.00424185
-0.00424185
-0.00424185
-0.00424185
-0.00424185
-0.00424185
-0.00424994
-0.00425642
-0.00425627
-0.00424945
-0.00424185
-0.00424185
-0.00424185
-0.00424185
-0.00424791
-0.00425123
-0.00425728
-0.0042573
-0.00425203
-0.00425031
-0.0042498
-0.00424976
-0.00424994
-0.00425123
-0.00425542
-0.00425687
-0.00425615
-0.00425274
-0.00425642
-0.00425728
-0.00420683
-0.00420637
-0.00420617
-0.00420086
-0.00420048
-0.00420047
-0.0042006
-0.00420513
-0.00420617
-0.00420617
-0.0041998
-0.00419072
-0.00419072
-0.00419072
-0.00419072
-0.00419832
-0.0042009
-0.00420086
-0.00419072
-0.00419072
-0.00419072
-0.00419072
-0.00419072
-0.00419072
-0.00419918
-0.00420573
-0.00420683
-0.00420048
-0.00419072
-0.00419072
-0.00419072
-0.00419072
-0.00419072
-0.00419072
-0.00419866
-0.00420502
-0.00420637
-0.00420047
-0.00419072
-0.00419072
-0.00419072
-0.00419072
-0.00419072
-0.00419072
-0.00419862
-0.0042016
-0.0042006
-0.00419072
-0.00419072
-0.00419072
-0.00419072
-0.00419072
-0.00419072
-0.00419881
-0.00420529
-0.00420513
-0.00419832
-0.00419072
-0.00419072
-0.00419072
-0.00419072
-0.00419678
-0.0042001
-0.00420615
-0.00420617
-0.0042009
-0.00419918
-0.00419866
-0.00419862
-0.00419881
-0.0042001
-0.00420429
-0.00420573
-0.00420502
-0.0042016
-0.00420529
-0.00420615
-0.00415569
-0.00415524
-0.00415504
-0.00414973
-0.00414934
-0.00414934
-0.00414946
-0.004154
-0.00415504
-0.00415504
-0.00414867
-0.00413958
-0.00413958
-0.00413958
-0.00413958
-0.00414718
-0.00414977
-0.00414973
-0.00413958
-0.00413958
-0.00413958
-0.00413958
-0.00413958
-0.00413958
-0.00414805
-0.0041546
-0.00415569
-0.00414934
-0.00413958
-0.00413958
-0.00413958
-0.00413958
-0.00413958
-0.00413958
-0.00414753
-0.00415388
-0.00415524
-0.00414934
-0.00413958
-0.00413958
-0.00413958
-0.00413958
-0.00413958
-0.00413958
-0.00414749
-0.00415047
-0.00414946
-0.00413958
-0.00413958
-0.00413958
-0.00413958
-0.00413958
-0.00413958
-0.00414767
-0.00415415
-0.004154
-0.00414718
-0.00413958
-0.00413958
-0.00413958
-0.00413958
-0.00414564
-0.00414897
-0.00415502
-0.00415504
-0.00414977
-0.00414805
-0.00414753
-0.00414749
-0.00414767
-0.00414897
-0.00415316
-0.0041546
-0.00415388
-0.00415047
-0.00415415
-0.00415502
-0.00410456
-0.00410411
-0.00410391
-0.0040986
-0.00409821
-0.00409821
-0.00409833
-0.00410287
-0.0041039
-0.00410391
-0.00409754
-0.00408845
-0.00408845
-0.00408845
-0.00408845
-0.00409605
-0.00409864
-0.0040986
-0.00408845
-0.00408845
-0.00408845
-0.00408845
-0.00408845
-0.00408845
-0.00409692
-0.00410347
-0.00410456
-0.00409821
-0.00408845
-0.00408845
-0.00408845
-0.00408845
-0.00408845
-0.00408845
-0.0040964
-0.00410275
-0.00410411
-0.00409821
-0.00408845
-0.00408845
-0.00408845
-0.00408845
-0.00408845
-0.00408845
-0.00409636
-0.00409934
-0.00409833
-0.00408845
-0.00408845
-0.00408845
-0.00408845
-0.00408845
-0.00408845
-0.00409654
-0.00410302
-0.00410287
-0.00409605
-0.00408845
-0.00408845
-0.00408845
-0.00408845
-0.00409451
-0.00409784
-0.00410389
-0.0041039
-0.00409864
-0.00409692
-0.0040964
-0.00409636
-0.00409654
-0.00409784
-0.00410202
-0.00410347
-0.00410275
-0.00409934
-0.00410302
-0.00410389
-0.00405343
-0.00405298
-0.00405278
-0.00404747
-0.00404708
-0.00404708
-0.0040472
-0.00405174
-0.00405277
-0.00405278
-0.00404641
-0.00403732
-0.00403732
-0.00403732
-0.00403732
-0.00404492
-0.00404751
-0.00404747
-0.00403732
-0.00403732
-0.00403732
-0.00403732
-0.00403732
-0.00403732
-0.00404579
-0.00405234
-0.00405343
-0.00404708
-0.00403732
-0.00403732
-0.00403732
-0.00403732
-0.00403732
-0.00403732
-0.00404527
-0.00405162
-0.00405298
-0.00404708
-0.00403732
-0.00403732
-0.00403732
-0.00403732
-0.00403732
-0.00403732
-0.00404523
-0.00404821
-0.0040472
-0.00403732
-0.00403732
-0.00403732
-0.00403732
-0.00403732
-0.00403732
-0.00404541
-0.00405189
-0.00405174
-0.00404492
-0.00403732
-0.00403732
-0.00403732
-0.00403732
-0.00404338
-0.0040467
-0.00405275
-0.00405277
-0.00404751
-0.00404579
-0.00404527
-0.00404523
-0.00404541
-0.0040467
-0.00405089
-0.00405234
-0.00405162
-0.00404821
-0.00405189
-0.00405275
-0.0040023
-0.00400185
-0.00400165
-0.00399634
-0.00399595
-0.00399594
-0.00399607
-0.00400061
-0.00400164
-0.00400165
-0.00399528
-0.00398619
-0.00398619
-0.00398619
-0.00398619
-0.00399379
-0.00399637
-0.00399634
-0.00398619
-0.00398619
-0.00398619
-0.00398619
-0.00398619
-0.00398619
-0.00399465
-0.00400121
-0.0040023
-0.00399595
-0.00398619
-0.00398619
-0.00398619
-0.00398619
-0.00398619
-0.00398619
-0.00399414
-0.00400049
-0.00400185
-0.00399594
-0.00398619
-0.00398619
-0.00398619
-0.00398619
-0.00398619
-0.00398619
-0.0039941
-0.00399708
-0.00399607
-0.00398619
-0.00398619
-0.00398619
-0.00398619
-0.00398619
-0.00398619
-0.00399428
-0.00400076
-0.00400061
-0.00399379
-0.00398619
-0.00398619
-0.00398619
-0.00398619
-0.00399225
-0.00399557
-0.00400162
-0.00400164
-0.00399637
-0.00399465
-0.00399414
-0.0039941
-0.00399428
-0.00399557
-0.00399976
-0.00400121
-0.00400049
-0.00399708
-0.00400076
-0.00400162
-0.00395117
-0.00395071
-0.00395051
-0.00394521
-0.00394482
-0.00394481
-0.00394494
-0.00394947
-0.00395051
-0.00395051
-0.00394414
-0.00393506
-0.00393506
-0.00393506
-0.00393506
-0.00394266
-0.00394524
-0.00394521
-0.00393506
-0.00393506
-0.00393506
-0.00393506
-0.00393506
-0.00393506
-0.00394352
-0.00395007
-0.00395117
-0.00394482
-0.00393506
-0.00393506
-0.00393506
-0.00393506
-0.00393506
-0.00393506
-0.003943
-0.00394936
-0.00395071
-0.00394481
-0.00393506
-0.00393506
-0.00393506
-0.00393506
-0.00393506
-0.00393506
-0.00394296
-0.00394594
-0.00394494
-0.00393506
-0.00393506
-0.00393506
-0.00393506
-0.00393506
-0.00393506
-0.00394315
-0.00394963
-0.00394947
-0.00394266
-0.00393506
-0.00393506
-0.00393506
-0.00393506
-0.00394112
-0.00394444
-0.00395049
-0.00395051
-0.00394524
-0.00394352
-0.003943
-0.00394296
-0.00394315
-0.00394444
-0.00394863
-0.00395007
-0.00394936
-0.00394595
-0.00394963
-0.00395049
-0.00390003
-0.00389958
-0.00389938
-0.00389407
-0.00389369
-0.00389368
-0.0038938
-0.00389834
-0.00389938
-0.00389938
-0.00389301
-0.00388392
-0.00388392
-0.00388392
-0.00388392
-0.00389153
-0.00389411
-0.00389407
-0.00388392
-0.00388392
-0.00388392
-0.00388392
-0.00388392
-0.00388392
-0.00389239
-0.00389894
-0.00390003
-0.00389369
-0.00388392
-0.00388392
-0.00388392
-0.00388392
-0.00388392
-0.00388392
-0.00389187
-0.00389823
-0.00389958
-0.00389368
-0.00388392
-0.00388392
-0.00388392
-0.00388392
-0.00388392
-0.00388392
-0.00389183
-0.00389481
-0.0038938
-0.00388392
-0.00388392
-0.00388392
-0.00388392
-0.00388392
-0.00388392
-0.00389202
-0.0038985
-0.00389834
-0.00389153
-0.00388392
-0.00388392
-0.00388392
-0.00388392
-0.00388998
-0.00389331
-0.00389936
-0.00389938
-0.00389411
-0.00389239
-0.00389187
-0.00389183
-0.00389202
-0.00389331
-0.0038975
-0.00389894
-0.00389823
-0.00389481
-0.0038985
-0.00389936
-0.0038489
-0.00384845
-0.00384825
-0.00384294
-0.00384255
-0.00384255
-0.00384267
-0.00384721
-0.00384824
-0.00384825
-0.00384188
-0.00383279
-0.00383279
-0.00383279
-0.00383279
-0.00384039
-0.00384298
-0.00384294
-0.00383279
-0.00383279
-0.00383279
-0.00383279
-0.00383279
-0.00383279
-0.00384126
-0.00384781
-0.0038489
-0.00384255
-0.00383279
-0.00383279
-0.00383279
-0.00383279
-0.00383279
-0.00383279
-0.00384074
-0.00384709
-0.00384845
-0.00384255
-0.00383279
-0.00383279
-0.00383279
-0.00383279
-0.00383279
-0.00383279
-0.0038407
-0.00384368
-0.00384267
-0.00383279
-0.00383279
-0.00383279
-0.00383279
-0.00383279
-0.00383279
-0.00384088
-0.00384736
-0.00384721
-0.00384039
-0.00383279
-0.00383279
-0.00383279
-0.00383279
-0.00383885
-0.00384217
-0.00384823
-0.00384824
-0.00384298
-0.00384126
-0.00384074
-0.0038407
-0.00384088
-0.00384217
-0.00384636
-0.00384781
-0.00384709
-0.00384368
-0.00384736
-0.00384823
-0.00379777
-0.00379731
-0.00379711
-0.00379181
-0.00379142
-0.00379141
-0.00379154
-0.00379608
-0.00379711
-0.00379711
-0.00379074
-0.00378166
-0.00378166
-0.00378166
-0.00378166
-0.00378926
-0.00379184
-0.00379181
-0.00378166
-0.00378166
-0.00378166
-0.00378166
-0.00378166
-0.00378166
-0.00379012
-0.00379667
-0.00379777
-0.00379142
-0.00378166
-0.00378166
-0.00378166
-0.00378166
-0.00378166
-0.00378166
-0.0037896
-0.00379596
-0.00379731
-0.00379141
-0.00378166
-0.00378166
-0.00378166
-0.00378166
-0.00378166
-0.00378166
-0.00378956
-0.00379255
-0.00379154
-0.00378166
-0.00378166
-0.00378166
-0.00378166
-0.00378166
-0.00378166
-0.00378975
-0.00379623
-0.00379608
-0.00378926
-0.00378166
-0.00378166
-0.00378166
-0.00378166
-0.00378772
-0.00379104
-0.00379709
-0.00379711
-0.00379184
-0.00379012
-0.0037896
-0.00378956
-0.00378975
-0.00379104
-0.00379523
-0.00379667
-0.00379596
-0.00379255
-0.00379623
-0.00379709
-0.00374664
-0.00374618
-0.00374598
-0.00374067
-0.00374029
-0.00374028
-0.00374041
-0.00374494
-0.00374598
-0.00374598
-0.00373961
-0.00373053
-0.00373053
-0.00373053
-0.00373053
-0.00373813
-0.00374071
-0.00374067
-0.00373053
-0.00373053
-0.00373053
-0.00373053
-0.00373053
-0.00373053
-0.00373899
-0.00374554
-0.00374664
-0.00374029
-0.00373053
-0.00373053
-0.00373053
-0.00373053
-0.00373053
-0.00373053
-0.00373847
-0.00374483
-0.00374618
-0.00374028
-0.00373053
-0.00373053
-0.00373053
-0.00373053
-0.00373053
-0.00373053
-0.00373843
-0.00374141
-0.00374041
-0.00373053
-0.00373053
-0.00373053
-0.00373053
-0.00373053
-0.00373053
-0.00373862
-0.0037451
-0.00374494
-0.00373813
-0.00373053
-0.00373053
-0.00373053
-0.00373053
-0.00373659
-0.00373991
-0.00374596
-0.00374598
-0.00374071
-0.00373899
-0.00373847
-0.00373843
-0.00373862
-0.00373991
-0.0037441
-0.00374554
-0.00374483
-0.00374141
-0.0037451
-0.00374596
-0.00369551
-0.00369505
-0.00369485
-0.00368954
-0.00368916
-0.00368915
-0.00368928
-0.00369381
-0.00369485
-0.00369485
-0.00368848
-0.0036794
-0.0036794
-0.0036794
-0.0036794
-0.003687
-0.00368958
-0.00368954
-0.0036794
-0.0036794
-0.0036794
-0.0036794
-0.0036794
-0.0036794
-0.00368786
-0.00369441
-0.00369551
-0.00368916
-0.0036794
-0.0036794
-0.0036794
-0.0036794
-0.0036794
-0.0036794
-0.00368734
-0.0036937
-0.00369505
-0.00368915
-0.0036794
-0.0036794
-0.0036794
-0.0036794
-0.0036794
-0.0036794
-0.0036873
-0.00369028
-0.00368928
-0.0036794
-0.0036794
-0.0036794
-0.0036794
-0.0036794
-0.0036794
-0.00368749
-0.00369397
-0.00369381
-0.003687
-0.0036794
-0.0036794
-0.0036794
-0.0036794
-0.00368546
-0.00368878
-0.00369483
-0.00369485
-0.00368958
-0.00368786
-0.00368734
-0.0036873
-0.00368749
-0.00368878
-0.00369297
-0.00369441
-0.0036937
-0.00369028
-0.00369397
-0.00369483
-0.00364437
-0.00364392
-0.00364372
-0.00363841
-0.00363803
-0.00363802
-0.00363814
-0.00364268
-0.00364372
-0.00364372
-0.00363735
-0.00362826
-0.00362826
-0.00362826
-0.00362826
-0.00363587
-0.00363845
-0.00363841
-0.00362826
-0.00362826
-0.00362826
-0.00362826
-0.00362826
-0.00362826
-0.00363673
-0.00364328
-0.00364437
-0.00363803
-0.00362826
-0.00362826
-0.00362826
-0.00362826
-0.00362826
-0.00362826
-0.00363621
-0.00364256
-0.00364392
-0.00363802
-0.00362826
-0.00362826
-0.00362826
-0.00362826
-0.00362826
-0.00362826
-0.00363617
-0.00363915
-0.00363814
-0.00362826
-0.00362826
-0.00362826
-0.00362826
-0.00362826
-0.00362826
-0.00363636
-0.00364284
-0.00364268
-0.00363587
-0.00362826
-0.00362826
-0.00362826
-0.00362826
-0.00363432
-0.00363765
-0.0036437
-0.00364372
-0.00363845
-0.00363673
-0.00363621
-0.00363617
-0.00363636
-0.00363765
-0.00364184
-0.00364328
-0.00364257
-0.00363915
-0.00364284
-0.0036437
-0.00359324
-0.00359279
-0.00359259
-0.00358728
-0.00358689
-0.00358689
-0.00358701
-0.00359155
-0.00359258
-0.00359259
-0.00358622
-0.00357713
-0.00357713
-0.00357713
-0.00357713
-0.00358473
-0.00358732
-0.00358728
-0.00357713
-0.00357713
-0.00357713
-0.00357713
-0.00357713
-0.00357713
-0.0035856
-0.00359215
-0.00359324
-0.00358689
-0.00357713
-0.00357713
-0.00357713
-0.00357713
-0.00357713
-0.00357713
-0.00358508
-0.00359143
-0.00359279
-0.00358689
-0.00357713
-0.00357713
-0.00357713
-0.00357713
-0.00357713
-0.00357713
-0.00358504
-0.00358802
-0.00358701
-0.00357713
-0.00357713
-0.00357713
-0.00357713
-0.00357713
-0.00357713
-0.00358522
-0.0035917
-0.00359155
-0.00358473
-0.00357713
-0.00357713
-0.00357713
-0.00357713
-0.00358319
-0.00358652
-0.00359257
-0.00359258
-0.00358732
-0.0035856
-0.00358508
-0.00358504
-0.00358522
-0.00358652
-0.0035907
-0.00359215
-0.00359143
-0.00358802
-0.0035917
-0.00359257
-0.00354211
-0.00354166
-0.00354146
-0.00353615
-0.00353576
-0.00353576
-0.00353588
-0.00354042
-0.00354145
-0.00354146
-0.00353509
-0.003526
-0.003526
-0.003526
-0.003526
-0.0035336
-0.00353619
-0.00353615
-0.003526
-0.003526
-0.003526
-0.003526
-0.003526
-0.003526
-0.00353446
-0.00354102
-0.00354211
-0.00353576
-0.003526
-0.003526
-0.003526
-0.003526
-0.003526
-0.003526
-0.00353395
-0.0035403
-0.00354166
-0.00353576
-0.003526
-0.003526
-0.003526
-0.003526
-0.003526
-0.003526
-0.00353391
-0.00353689
-0.00353588
-0.003526
-0.003526
-0.003526
-0.003526
-0.003526
-0.003526
-0.00353409
-0.00354057
-0.00354042
-0.0035336
-0.003526
-0.003526
-0.003526
-0.003526
-0.00353206
-0.00353538
-0.00354143
-0.00354145
-0.00353619
-0.00353446
-0.00353395
-0.00353391
-0.00353409
-0.00353538
-0.00353957
-0.00354102
-0.0035403
-0.00353689
-0.00354057
-0.00354143
-0.00349098
-0.00349053
-0.00349033
-0.00348502
-0.00348463
-0.00348462
-0.00348475
-0.00348929
-0.00349032
-0.00349033
-0.00348396
-0.00347487
-0.00347487
-0.00347487
-0.00347487
-0.00348247
-0.00348505
-0.00348502
-0.00347487
-0.00347487
-0.00347487
-0.00347487
-0.00347487
-0.00347487
-0.00348333
-0.00348988
-0.00349098
-0.00348463
-0.00347487
-0.00347487
-0.00347487
-0.00347487
-0.00347487
-0.00347487
-0.00348281
-0.00348917
-0.00349053
-0.00348462
-0.00347487
-0.00347487
-0.00347487
-0.00347487
-0.00347487
-0.00347487
-0.00348278
-0.00348576
-0.00348475
-0.00347487
-0.00347487
-0.00347487
-0.00347487
-0.00347487
-0.00347487
-0.00348296
-0.00348944
-0.00348929
-0.00348247
-0.00347487
-0.00347487
-0.00347487
-0.00347487
-0.00348093
-0.00348425
-0.0034903
-0.00349032
-0.00348505
-0.00348333
-0.00348281
-0.00348278
-0.00348296
-0.00348425
-0.00348844
-0.00348988
-0.00348917
-0.00348576
-0.00348944
-0.0034903
-0.00343985
-0.00343939
-0.00343919
-0.00343388
-0.0034335
-0.00343349
-0.00343362
-0.00343815
-0.00343919
-0.00343919
-0.00343282
-0.00342374
-0.00342374
-0.00342374
-0.00342374
-0.00343134
-0.00343392
-0.00343388
-0.00342374
-0.00342374
-0.00342374
-0.00342374
-0.00342374
-0.00342374
-0.0034322
-0.00343875
-0.00343985
-0.0034335
-0.00342374
-0.00342374
-0.00342374
-0.00342374
-0.00342374
-0.00342374
-0.00343168
-0.00343804
-0.00343939
-0.00343349
-0.00342374
-0.00342374
-0.00342374
-0.00342374
-0.00342374
-0.00342374
-0.00343164
-0.00343462
-0.00343362
-0.00342374
-0.00342374
-0.00342374
-0.00342374
-0.00342374
-0.00342374
-0.00343183
-0.00343831
-0.00343815
-0.00343134
-0.00342374
-0.00342374
-0.00342374
-0.00342374
-0.00342979
-0.00343312
-0.00343917
-0.00343919
-0.00343392
-0.0034322
-0.00343168
-0.00343164
-0.00343183
-0.00343312
-0.00343731
-0.00343875
-0.00343804
-0.00343462
-0.00343831
-0.00343917
-0.00338871
-0.00338826
-0.00338806
-0.00338275
-0.00338236
-0.00338236
-0.00338248
-0.00338702
-0.00338806
-0.00338806
-0.00338169
-0.0033726
-0.0033726
-0.0033726
-0.0033726
-0.0033802
-0.00338279
-0.00338275
-0.0033726
-0.0033726
-0.0033726
-0.0033726
-0.0033726
-0.0033726
-0.00338107
-0.00338762
-0.00338871
-0.00338236
-0.0033726
-0.0033726
-0.0033726
-0.0033726
-0.0033726
-0.0033726
-0.00338055
-0.0033869
-0.00338826
-0.00338236
-0.0033726
-0.0033726
-0.0033726
-0.0033726
-0.0033726
-0.0033726
-0.00338051
-0.00338349
-0.00338248
-0.0033726
-0.0033726
-0.0033726
-0.0033726
-0.0033726
-0.0033726
-0.00338069
-0.00338717
-0.00338702
-0.0033802
-0.0033726
-0.0033726
-0.0033726
-0.0033726
-0.00337866
-0.00338199
-0.00338804
-0.00338806
-0.00338279
-0.00338107
-0.00338055
-0.00338051
-0.00338069
-0.00338199
-0.00338617
-0.00338762
-0.0033869
-0.00338349
-0.00338717
-0.00338804
-0.00333758
-0.00333713
-0.00333693
-0.00333162
-0.00333123
-0.00333123
-0.00333135
-0.00333589
-0.00333692
-0.00333693
-0.00333056
-0.00332147
-0.00332147
-0.00332147
-0.00332147
-0.00332907
-0.00333166
-0.00333162
-0.00332147
-0.00332147
-0.00332147
-0.00332147
-0.00332147
-0.00332147
-0.00332994
-0.00333649
-0.00333758
-0.00333123
-0.00332147
-0.00332147
-0.00332147
-0.00332147
-0.00332147
-0.00332147
-0.00332942
-0.00333577
-0.00333713
-0.00333123
-0.00332147
-0.00332147
-0.00332147
-0.00332147
-0.00332147
-0.00332147
-0.00332938
-0.00333236
-0.00333135
-0.00332147
-0.00332147
-0.00332147
-0.00332147
-0.00332147
-0.00332147
-0.00332956
-0.00333604
-0.00333589
-0.00332907
-0.00332147
-0.00332147
-0.00332147
-0.00332147
-0.00332753
-0.00333086
-0.0033369
-0.00333692
-0.00333166
-0.00332994
-0.00332942
-0.00332938
-0.00332956
-0.00333086
-0.00333504
-0.00333649
-0.00333577
-0.00333236
-0.00333604
-0.0033369
-0.00328645
-0.003286
-0.0032858
-0.00328049
-0.0032801
-0.0032801
-0.00328022
-0.00328476
-0.00328579
-0.0032858
-0.00327943
-0.00327034
-0.00327034
-0.00327034
-0.00327034
-0.00327794
-0.00328053
-0.00328049
-0.00327034
-0.00327034
-0.00327034
-0.00327034
-0.00327034
-0.00327034
-0.00327881
-0.00328536
-0.00328645
-0.0032801
-0.00327034
-0.00327034
-0.00327034
-0.00327034
-0.00327034
-0.00327034
-0.00327829
-0.00328464
-0.003286
-0.0032801
-0.00327034
-0.00327034
-0.00327034
-0.00327034
-0.00327034
-0.00327034
-0.00327825
-0.00328123
-0.00328022
-0.00327034
-0.00327034
-0.00327034
-0.00327034
-0.00327034
-0.00327034
-0.00327843
-0.00328491
-0.00328476
-0.00327794
-0.00327034
-0.00327034
-0.00327034
-0.00327034
-0.0032764
-0.00327973
-0.00328578
-0.00328579
-0.00328053
-0.00327881
-0.00327829
-0.00327825
-0.00327843
-0.00327973
-0.00328391
-0.00328536
-0.00328464
-0.00328123
-0.00328491
-0.00328578
-0.00323532
-0.00323487
-0.00323467
-0.00322936
-0.00322897
-0.00322897
-0.00322909
-0.00323363
-0.00323466
-0.00323467
-0.0032283
-0.00321921
-0.00321921
-0.00321921
-0.00321921
-0.00322681
-0.0032294
-0.00322936
-0.00321921
-0.00321921
-0.00321921
-0.00321921
-0.00321921
-0.00321921
-0.00322768
-0.00323423
-0.00323532
-0.00322897
-0.00321921
-0.00321921
-0.00321921
-0.00321921
-0.00321921
-0.00321921
-0.00322716
-0.00323351
-0.00323487
-0.00322897
-0.00321921
-0.00321921
-0.00321921
-0.00321921
-0.00321921
-0.00321921
-0.00322712
-0.0032301
-0.00322909
-0.00321921
-0.00321921
-0.00321921
-0.00321921
-0.00321921
-0.00321921
-0.0032273
-0.00323378
-0.00323363
-0.00322681
-0.00321921
-0.00321921
-0.00321921
-0.00321921
-0.00322527
-0.00322859
-0.00323464
-0.00323466
-0.0032294
-0.00322768