/*--------------------------------*- C++ -*----------------------------------*\
| =========                 |                                                 |
| \\      /  F ield         | OpenFOAM: The Open Source CFD Toolbox           |
|  \\    /   O peration     | Version:  v2012                                 |
|   \\  /    A nd           | Website:  www.openfoam.com                      |
|    \\/     M anipulation  |                                                 |
\*---------------------------------------------------------------------------*/
FoamFile
{
    version     2.0;
    format      ascii;
    class       volScalarField;
    location    "0.355";
    object      p;
}
// * * * * * * * * * * * * * * * * * * * * * * * * * * * * * * * * * * * * * //

dimensions      [0 2 -2 0 0 0 0];


internalField   nonuniform List<scalar> 
189320
(
7.14275e-07
7.1404e-07
7.07617e-07
7.07232e-07
7.05796e-07
7.05164e-07
7.06845e-07
7.08186e-07
7.04909e-07
7.07598e-07
7.04543e-07
7.05402e-07
7.0467e-07
7.0451e-07
7.0501e-07
7.05037e-07
7.06209e-07
7.07219e-07
7.05385e-07
7.04265e-07
7.03794e-07
7.03699e-07
7.04023e-07
7.04718e-07
7.04565e-07
7.08693e-07
7.14188e-07
7.05732e-07
7.04661e-07
7.03792e-07
7.03395e-07
7.03322e-07
7.03556e-07
7.04179e-07
7.05269e-07
7.07783e-07
7.13987e-07
7.05157e-07
7.04508e-07
7.03702e-07
7.03325e-07
7.03252e-07
7.03466e-07
7.04036e-07
7.05261e-07
7.06082e-07
7.06846e-07
7.05016e-07
7.04031e-07
7.03563e-07
7.0347e-07
7.03759e-07
7.04437e-07
7.05084e-07
7.16786e-07
7.08194e-07
7.05049e-07
7.04735e-07
7.04196e-07
7.04046e-07
7.04439e-07
7.05155e-07
7.04476e-07
7.08204e-07
7.04925e-07
7.06232e-07
7.046e-07
7.05305e-07
7.05281e-07
7.05092e-07
7.04479e-07
7.03704e-07
7.08728e-07
7.07826e-07
7.0612e-07
7.16802e-07
7.08214e-07
6.95668e-07
6.95445e-07
6.96925e-07
6.94953e-07
6.95076e-07
6.94807e-07
6.94813e-07
6.95214e-07
6.95763e-07
6.96926e-07
6.96086e-07
6.89577e-07
6.89498e-07
6.89501e-07
6.89565e-07
6.91729e-07
6.92343e-07
6.94942e-07
6.89571e-07
6.88775e-07
6.89306e-07
6.89298e-07
6.88777e-07
6.89588e-07
6.89279e-07
6.92549e-07
6.95662e-07
6.9508e-07
6.89498e-07
6.89295e-07
6.89506e-07
6.89503e-07
6.89302e-07
6.89493e-07
6.88883e-07
6.92182e-07
6.95444e-07
6.94812e-07
6.89502e-07
6.89296e-07
6.89504e-07
6.89502e-07
6.89306e-07
6.89499e-07
6.88885e-07
6.92146e-07
6.94817e-07
6.89564e-07
6.88776e-07
6.89301e-07
6.89292e-07
6.88779e-07
6.89578e-07
6.88918e-07
6.89958e-07
6.95222e-07
6.91746e-07
6.89589e-07
6.89499e-07
6.89499e-07
6.89575e-07
6.85369e-07
6.9049e-07
6.9389e-07
6.95768e-07
6.92348e-07
6.89285e-07
6.88884e-07
6.88887e-07
6.88918e-07
6.90473e-07
6.90624e-07
6.92553e-07
6.92191e-07
6.92147e-07
6.89958e-07
6.93883e-07
6.8826e-07
6.87823e-07
6.89377e-07
6.87867e-07
6.88184e-07
6.88228e-07
6.87508e-07
6.87654e-07
6.88009e-07
6.89376e-07
6.89949e-07
6.83002e-07
6.82935e-07
6.82933e-07
6.83002e-07
6.8549e-07
6.85031e-07
6.87866e-07
6.82999e-07
6.82385e-07
6.82467e-07
6.82457e-07
6.82393e-07
6.83003e-07
6.80889e-07
6.85031e-07
6.88258e-07
6.88182e-07
6.82933e-07
6.82456e-07
6.8251e-07
6.82505e-07
6.82464e-07
6.82933e-07
6.79728e-07
6.8508e-07
6.87822e-07
6.88227e-07
6.82934e-07
6.82455e-07
6.82506e-07
6.82505e-07
6.82465e-07
6.82934e-07
6.79846e-07
6.84402e-07
6.87504e-07
6.82999e-07
6.82388e-07
6.82464e-07
6.82455e-07
6.82393e-07
6.83004e-07
6.79958e-07
6.82579e-07
6.87655e-07
6.85492e-07
6.83004e-07
6.82934e-07
6.82933e-07
6.83003e-07
6.76947e-07
6.82473e-07
6.85828e-07
6.8801e-07
6.85034e-07
6.8089e-07
6.79733e-07
6.79846e-07
6.79963e-07
6.82474e-07
6.82636e-07
6.85021e-07
6.85079e-07
6.84403e-07
6.82584e-07
6.85823e-07
6.80853e-07
6.80408e-07
6.81999e-07
6.80627e-07
6.81007e-07
6.81108e-07
6.80223e-07
6.80272e-07
6.80575e-07
6.81999e-07
6.82854e-07
6.75905e-07
6.75881e-07
6.7588e-07
6.75903e-07
6.78081e-07
6.77604e-07
6.80622e-07
6.75905e-07
6.75675e-07
6.75668e-07
6.75665e-07
6.75675e-07
6.75905e-07
6.73521e-07
6.77588e-07
6.80852e-07
6.81007e-07
6.75883e-07
6.75666e-07
6.75661e-07
6.75659e-07
6.75666e-07
6.7588e-07
6.71955e-07
6.77604e-07
6.80405e-07
6.81106e-07
6.75881e-07
6.75664e-07
6.75659e-07
6.75658e-07
6.75666e-07
6.75881e-07
6.71992e-07
6.76933e-07
6.80219e-07
6.75904e-07
6.75674e-07
6.75666e-07
6.75664e-07
6.75675e-07
6.75903e-07
6.72232e-07
6.75103e-07
6.80243e-07
6.78084e-07
6.75905e-07
6.75883e-07
6.75882e-07
6.75905e-07
6.69205e-07
6.74899e-07
6.78229e-07
6.80596e-07
6.77606e-07
6.73527e-07
6.71958e-07
6.71991e-07
6.72225e-07
6.74896e-07
6.75187e-07
6.77597e-07
6.77602e-07
6.76936e-07
6.75103e-07
6.78234e-07
6.73632e-07
6.73182e-07
6.74785e-07
6.7345e-07
6.73871e-07
6.73979e-07
6.73015e-07
6.73026e-07
6.73369e-07
6.74798e-07
6.75727e-07
6.68756e-07
6.68751e-07
6.68751e-07
6.68756e-07
6.7086e-07
6.70374e-07
6.7344e-07
6.68756e-07
6.6867e-07
6.68674e-07
6.68672e-07
6.68671e-07
6.68755e-07
6.66269e-07
6.70363e-07
6.73627e-07
6.73868e-07
6.6875e-07
6.68673e-07
6.6867e-07
6.68669e-07
6.68673e-07
6.68751e-07
6.6464e-07
6.70366e-07
6.73181e-07
6.73976e-07
6.6875e-07
6.68673e-07
6.68669e-07
6.68669e-07
6.68674e-07
6.68751e-07
6.64696e-07
6.69705e-07
6.73011e-07
6.68755e-07
6.68669e-07
6.68673e-07
6.6867e-07
6.6867e-07
6.68756e-07
6.64994e-07
6.6786e-07
6.73027e-07
6.70861e-07
6.68755e-07
6.6875e-07
6.68751e-07
6.68756e-07
6.6192e-07
6.67678e-07
6.70978e-07
6.73369e-07
6.70373e-07
6.6627e-07
6.6464e-07
6.64692e-07
6.6499e-07
6.67675e-07
6.67956e-07
6.7036e-07
6.70364e-07
6.69704e-07
6.67861e-07
6.70981e-07
6.66468e-07
6.6602e-07
6.67641e-07
6.66296e-07
6.66733e-07
6.66844e-07
6.65852e-07
6.6586e-07
6.6621e-07
6.67638e-07
6.68597e-07
6.61614e-07
6.61612e-07
6.61612e-07
6.61612e-07
6.63697e-07
6.63209e-07
6.66295e-07
6.61612e-07
6.61583e-07
6.61583e-07
6.61583e-07
6.61582e-07
6.61611e-07
6.59105e-07
6.63198e-07
6.66466e-07
6.66733e-07
6.61611e-07
6.61583e-07
6.61583e-07
6.61583e-07
6.61583e-07
6.61612e-07
6.57455e-07
6.63198e-07
6.66019e-07
6.66844e-07
6.61612e-07
6.61583e-07
6.61582e-07
6.61583e-07
6.61583e-07
6.61612e-07
6.57514e-07
6.62542e-07
6.65852e-07
6.61612e-07
6.61582e-07
6.61582e-07
6.61582e-07
6.61583e-07
6.61612e-07
6.57832e-07
6.60691e-07
6.65857e-07
6.63695e-07
6.61612e-07
6.61611e-07
6.61611e-07
6.61612e-07
6.54739e-07
6.60516e-07
6.63788e-07
6.66209e-07
6.6321e-07
6.59103e-07
6.57451e-07
6.57507e-07
6.57825e-07
6.60511e-07
6.6079e-07
6.63188e-07
6.63194e-07
6.62538e-07
6.60686e-07
6.63769e-07
6.59324e-07
6.58876e-07
6.60495e-07
6.59161e-07
6.59602e-07
6.59712e-07
6.58704e-07
6.58712e-07
6.5907e-07
6.60494e-07
6.61462e-07
6.54471e-07
6.54476e-07
6.54475e-07
6.54471e-07
6.56552e-07
6.56065e-07
6.59159e-07
6.54474e-07
6.54462e-07
6.54464e-07
6.54464e-07
6.54462e-07
6.54474e-07
6.51956e-07
6.56038e-07
6.59323e-07
6.59603e-07
6.54475e-07
6.54462e-07
6.54464e-07
6.54464e-07
6.54462e-07
6.54473e-07
6.503e-07
6.5605e-07
6.58876e-07
6.5971e-07
6.54473e-07
6.54462e-07
6.54463e-07
6.54464e-07
6.54462e-07
6.54473e-07
6.50367e-07
6.55398e-07
6.58704e-07
6.54473e-07
6.54463e-07
6.54463e-07
6.54464e-07
6.54463e-07
6.54473e-07
6.5069e-07
6.53543e-07
6.5871e-07
6.56551e-07
6.54472e-07
6.54473e-07
6.54473e-07
6.54472e-07
6.47592e-07
6.53376e-07
6.56618e-07
6.5907e-07
6.56064e-07
6.51956e-07
6.503e-07
6.50366e-07
6.50687e-07
6.5337e-07
6.53645e-07
6.56031e-07
6.5605e-07
6.55397e-07
6.53539e-07
6.56627e-07
6.52187e-07
6.51739e-07
6.53357e-07
6.52024e-07
6.52467e-07
6.52575e-07
6.51564e-07
6.51573e-07
6.51935e-07
6.53356e-07
6.54326e-07
6.47336e-07
6.47335e-07
6.47335e-07
6.47336e-07
6.49414e-07
6.48929e-07
6.52023e-07
6.47335e-07
6.47332e-07
6.47332e-07
6.47332e-07
6.47334e-07
6.47335e-07
6.44821e-07
6.48897e-07
6.52185e-07
6.52468e-07
6.47335e-07
6.47333e-07
6.47332e-07
6.47332e-07
6.47333e-07
6.47335e-07
6.43162e-07
6.48913e-07
6.51738e-07
6.52575e-07
6.47335e-07
6.47332e-07
6.47333e-07
6.47332e-07
6.47333e-07
6.47336e-07
6.4323e-07
6.4826e-07
6.51564e-07
6.47335e-07
6.47333e-07
6.47333e-07
6.47333e-07
6.47333e-07
6.47336e-07
6.43556e-07
6.46403e-07
6.5157e-07
6.49413e-07
6.47335e-07
6.47335e-07
6.47335e-07
6.47336e-07
6.40454e-07
6.46237e-07
6.49473e-07
6.51935e-07
6.48927e-07
6.44818e-07
6.43158e-07
6.43225e-07
6.43549e-07
6.46232e-07
6.46507e-07
6.48889e-07
6.48909e-07
6.48259e-07
6.46401e-07
6.49491e-07
6.4505e-07
6.44601e-07
6.46219e-07
6.44887e-07
6.45331e-07
6.4544e-07
6.44427e-07
6.44436e-07
6.44798e-07
6.46218e-07
6.47192e-07
6.40199e-07
6.40199e-07
6.40199e-07
6.402e-07
6.42276e-07
6.41791e-07
6.44887e-07
6.402e-07
6.40197e-07
6.40197e-07
6.40197e-07
6.40197e-07
6.40197e-07
6.37683e-07
6.4176e-07
6.45049e-07
6.45332e-07
6.40199e-07
6.40197e-07
6.40197e-07
6.40197e-07
6.40198e-07
6.40198e-07
6.36023e-07
6.41776e-07
6.44601e-07
6.4544e-07
6.402e-07
6.40198e-07
6.40199e-07
6.40198e-07
6.40198e-07
6.40198e-07
6.36092e-07
6.41123e-07
6.44428e-07
6.40197e-07
6.40195e-07
6.40195e-07
6.40196e-07
6.40197e-07
6.40199e-07
6.36419e-07
6.39266e-07
6.44434e-07
6.42275e-07
6.402e-07
6.402e-07
6.40199e-07
6.402e-07
6.33318e-07
6.39099e-07
6.42335e-07
6.44798e-07
6.4179e-07
6.37682e-07
6.3602e-07
6.36088e-07
6.36412e-07
6.39095e-07
6.39369e-07
6.41753e-07
6.41773e-07
6.41122e-07
6.39265e-07
6.42355e-07
6.37913e-07
6.37465e-07
6.39082e-07
6.37752e-07
6.38196e-07
6.38304e-07
6.37289e-07
6.37299e-07
6.37661e-07
6.39082e-07
6.40056e-07
6.33063e-07
6.33063e-07
6.33062e-07
6.33062e-07
6.35139e-07
6.34654e-07
6.37751e-07
6.33062e-07
6.33061e-07
6.33061e-07
6.33062e-07
6.33061e-07
6.33062e-07
6.30545e-07
6.34623e-07
6.37912e-07
6.38197e-07
6.33063e-07
6.33063e-07
6.33062e-07
6.33063e-07
6.33062e-07
6.33063e-07
6.28886e-07
6.34638e-07
6.37465e-07
6.38304e-07
6.33062e-07
6.33061e-07
6.33061e-07
6.33062e-07
6.3306e-07
6.33062e-07
6.28955e-07
6.33986e-07
6.37291e-07
6.33063e-07
6.33062e-07
6.33062e-07
6.33062e-07
6.33061e-07
6.33063e-07
6.29283e-07
6.32129e-07
6.37298e-07
6.35137e-07
6.33062e-07
6.33062e-07
6.33062e-07
6.33062e-07
6.26182e-07
6.31962e-07
6.35199e-07
6.37661e-07
6.34652e-07
6.30544e-07
6.28881e-07
6.28951e-07
6.29275e-07
6.31958e-07
6.32232e-07
6.34617e-07
6.34636e-07
6.33985e-07
6.32127e-07
6.35217e-07
6.30776e-07
6.30328e-07
6.31949e-07
6.30618e-07
6.31061e-07
6.31168e-07
6.30153e-07
6.30164e-07
6.30526e-07
6.31946e-07
6.32918e-07
6.25926e-07
6.25926e-07
6.25926e-07
6.25926e-07
6.28003e-07
6.27519e-07
6.30615e-07
6.25926e-07
6.25927e-07
6.25926e-07
6.25926e-07
6.25927e-07
6.25926e-07
6.2341e-07
6.27486e-07
6.30776e-07
6.3106e-07
6.25926e-07
6.25926e-07
6.25926e-07
6.25926e-07
6.25926e-07
6.25926e-07
6.21751e-07
6.27503e-07
6.30328e-07
6.31168e-07
6.25926e-07
6.25926e-07
6.25926e-07
6.25926e-07
6.25926e-07
6.25926e-07
6.21821e-07
6.26851e-07
6.30154e-07
6.25926e-07
6.25926e-07
6.25926e-07
6.25926e-07
6.25927e-07
6.25926e-07
6.22147e-07
6.24993e-07
6.30161e-07
6.28001e-07
6.25926e-07
6.25926e-07
6.25926e-07
6.25926e-07
6.19047e-07
6.24827e-07
6.2806e-07
6.30526e-07
6.27517e-07
6.23409e-07
6.21745e-07
6.21815e-07
6.2214e-07
6.24823e-07
6.25097e-07
6.2748e-07
6.275e-07
6.26849e-07
6.24991e-07
6.28082e-07
6.23642e-07
6.23193e-07
6.24809e-07
6.23483e-07
6.23925e-07
6.24033e-07
6.23018e-07
6.23027e-07
6.23389e-07
6.2481e-07
6.25783e-07
6.1879e-07
6.18791e-07
6.1879e-07
6.1879e-07
6.20867e-07
6.20382e-07
6.23479e-07
6.1879e-07
6.1879e-07
6.18791e-07
6.18791e-07
6.18791e-07
6.1879e-07
6.16275e-07
6.20351e-07
6.23641e-07
6.23925e-07
6.1879e-07
6.1879e-07
6.18791e-07
6.18791e-07
6.18791e-07
6.18791e-07
6.14616e-07
6.20368e-07
6.23193e-07
6.24033e-07
6.1879e-07
6.1879e-07
6.18791e-07
6.18791e-07
6.18791e-07
6.18791e-07
6.14686e-07
6.19716e-07
6.23018e-07
6.1879e-07
6.18791e-07
6.18791e-07
6.18791e-07
6.18791e-07
6.18791e-07
6.15012e-07
6.17857e-07
6.23026e-07
6.20865e-07
6.1879e-07
6.1879e-07
6.1879e-07
6.1879e-07
6.11911e-07
6.17692e-07
6.20924e-07
6.2339e-07
6.20381e-07
6.16273e-07
6.1461e-07
6.1468e-07
6.15005e-07
6.17687e-07
6.17961e-07
6.20345e-07
6.20365e-07
6.19714e-07
6.17856e-07
6.20946e-07
6.1651e-07
6.16059e-07
6.17658e-07
6.16351e-07
6.16792e-07
6.16898e-07
6.15885e-07
6.1589e-07
6.16254e-07
6.17672e-07
6.18646e-07
6.11655e-07
6.11655e-07
6.11655e-07
6.11655e-07
6.13731e-07
6.13246e-07
6.16343e-07
6.11654e-07
6.11654e-07
6.11654e-07
6.11655e-07
6.11655e-07
6.11655e-07
6.09139e-07
6.13215e-07
6.16504e-07
6.16789e-07
6.11654e-07
6.11654e-07
6.11655e-07
6.11655e-07
6.11655e-07
6.11655e-07
6.0748e-07
6.13232e-07
6.16057e-07
6.16897e-07
6.11655e-07
6.11654e-07
6.11654e-07
6.11654e-07
6.11654e-07
6.11655e-07
6.0755e-07
6.1258e-07
6.15882e-07
6.11654e-07
6.11654e-07
6.11655e-07
6.11655e-07
6.11654e-07
6.11655e-07
6.07876e-07
6.10721e-07
6.1589e-07
6.13729e-07
6.11655e-07
6.11655e-07
6.11655e-07
6.11655e-07
6.04775e-07
6.10556e-07
6.13788e-07
6.16255e-07
6.13245e-07
6.09137e-07
6.07474e-07
6.07543e-07
6.07868e-07
6.10551e-07
6.10825e-07
6.13209e-07
6.13229e-07
6.12578e-07
6.1072e-07
6.13811e-07
6.0937e-07
6.08921e-07
6.10538e-07
6.09211e-07
6.09653e-07
6.09761e-07
6.08748e-07
6.08753e-07
6.09117e-07
6.10538e-07
6.11512e-07
6.04518e-07
6.04518e-07
6.04518e-07
6.04518e-07
6.06594e-07
6.0611e-07
6.09207e-07
6.04518e-07
6.04518e-07
6.04518e-07
6.04518e-07
6.04518e-07
6.04518e-07
6.02002e-07
6.06078e-07
6.09368e-07
6.09653e-07
6.04518e-07
6.04518e-07
6.04518e-07
6.04518e-07
6.04518e-07
6.04518e-07
6.00343e-07
6.06095e-07
6.08921e-07
6.09761e-07
6.04518e-07
6.04518e-07
6.04518e-07
6.04518e-07
6.04518e-07
6.04518e-07
6.00413e-07
6.05443e-07
6.08746e-07
6.04518e-07
6.04518e-07
6.04518e-07
6.04518e-07
6.04518e-07
6.04518e-07
6.00739e-07
6.03585e-07
6.08753e-07
6.06593e-07
6.04518e-07
6.04518e-07
6.04518e-07
6.04518e-07
5.97638e-07
6.03419e-07
6.0665e-07
6.09118e-07
6.06109e-07
6.02e-07
6.00337e-07
6.00406e-07
6.00732e-07
6.03415e-07
6.03688e-07
6.06072e-07
6.06093e-07
6.05441e-07
6.03583e-07
6.06674e-07
6.02234e-07
6.01787e-07
6.03402e-07
6.02075e-07
6.02518e-07
6.02626e-07
6.01614e-07
6.01628e-07
6.01969e-07
6.03402e-07
6.04376e-07
5.97382e-07
5.97382e-07
5.97382e-07
5.97382e-07
5.99457e-07
5.98972e-07
6.02071e-07
5.97382e-07
5.97382e-07
5.97382e-07
5.97382e-07
5.97382e-07
5.97382e-07
5.94866e-07
5.98943e-07
6.02232e-07
6.02517e-07
5.97382e-07
5.97382e-07
5.97382e-07
5.97382e-07
5.97382e-07
5.97382e-07
5.93207e-07
5.98958e-07
6.01785e-07
6.02625e-07
5.97382e-07
5.97382e-07
5.97382e-07
5.97382e-07
5.97382e-07
5.97382e-07
5.93277e-07
5.98307e-07
6.0161e-07
5.97382e-07
5.97382e-07
5.97382e-07
5.97382e-07
5.97382e-07
5.97382e-07
5.93603e-07
5.96448e-07
6.01617e-07
5.99456e-07
5.97382e-07
5.97382e-07
5.97382e-07
5.97382e-07
5.90502e-07
5.96283e-07
5.99514e-07
6.01982e-07
5.98973e-07
5.94864e-07
5.93201e-07
5.9327e-07
5.93596e-07
5.96279e-07
5.96552e-07
5.98936e-07
5.98956e-07
5.98305e-07
5.96447e-07
5.99538e-07
5.95098e-07
5.9465e-07
5.96265e-07
5.94939e-07
5.95382e-07
5.95489e-07
5.94476e-07
5.94483e-07
5.94844e-07
5.96266e-07
5.97239e-07
5.90247e-07
5.90247e-07
5.90247e-07
5.90247e-07
5.92322e-07
5.91838e-07
5.94935e-07
5.90247e-07
5.90247e-07
5.90247e-07
5.90247e-07
5.90247e-07
5.90246e-07
5.87731e-07
5.91807e-07
5.95097e-07
5.95381e-07
5.90247e-07
5.90247e-07
5.90247e-07
5.90247e-07
5.90247e-07
5.90246e-07
5.86072e-07
5.91823e-07
5.94649e-07
5.95489e-07
5.90247e-07
5.90247e-07
5.90247e-07
5.90247e-07
5.90247e-07
5.90246e-07
5.86141e-07
5.91171e-07
5.94474e-07
5.90246e-07
5.90247e-07
5.90247e-07
5.90247e-07
5.90247e-07
5.90246e-07
5.86468e-07
5.89313e-07
5.94481e-07
5.92321e-07
5.90247e-07
5.90247e-07
5.90247e-07
5.90247e-07
5.83367e-07
5.89147e-07
5.92378e-07
5.94846e-07
5.91837e-07
5.87729e-07
5.86065e-07
5.86134e-07
5.8646e-07
5.89143e-07
5.89417e-07
5.91801e-07
5.9182e-07
5.9117e-07
5.89311e-07
5.92402e-07
5.87963e-07
5.87515e-07
5.8913e-07
5.87804e-07
5.88247e-07
5.88354e-07
5.8734e-07
5.87347e-07
5.87708e-07
5.8913e-07
5.90103e-07
5.83111e-07
5.83111e-07
5.83111e-07
5.83111e-07
5.85187e-07
5.84702e-07
5.878e-07
5.83111e-07
5.83111e-07
5.83111e-07
5.83111e-07
5.83111e-07
5.83111e-07
5.80595e-07
5.84672e-07
5.87961e-07
5.88246e-07
5.83111e-07
5.83111e-07
5.83111e-07
5.83111e-07
5.83111e-07
5.83111e-07
5.78936e-07
5.84688e-07
5.87514e-07
5.88354e-07
5.83111e-07
5.83111e-07
5.83111e-07
5.83111e-07
5.83111e-07
5.83111e-07
5.79006e-07
5.84036e-07
5.87338e-07
5.83111e-07
5.83111e-07
5.83111e-07
5.83111e-07
5.83111e-07
5.83111e-07
5.79332e-07
5.82177e-07
5.87346e-07
5.85185e-07
5.83111e-07
5.83111e-07
5.83111e-07
5.83111e-07
5.76231e-07
5.82012e-07
5.85243e-07
5.87711e-07
5.84702e-07
5.80593e-07
5.7893e-07
5.78999e-07
5.79325e-07
5.82008e-07
5.82281e-07
5.84665e-07
5.84685e-07
5.84034e-07
5.82176e-07
5.85267e-07
5.80827e-07
5.80378e-07
5.8199e-07
5.80667e-07
5.8111e-07
5.81217e-07
5.80204e-07
5.80211e-07
5.80574e-07
5.81993e-07
5.82966e-07
5.75974e-07
5.75974e-07
5.75974e-07
5.75974e-07
5.78051e-07
5.77566e-07
5.80663e-07
5.75974e-07
5.75974e-07
5.75974e-07
5.75974e-07
5.75974e-07
5.75974e-07
5.73458e-07
5.77535e-07
5.80825e-07
5.81109e-07
5.75974e-07
5.75974e-07
5.75974e-07
5.75974e-07
5.75974e-07
5.75974e-07
5.718e-07
5.77551e-07
5.80377e-07
5.81217e-07
5.75974e-07
5.75974e-07
5.75974e-07
5.75974e-07
5.75974e-07
5.75974e-07
5.71869e-07
5.769e-07
5.80202e-07
5.75974e-07
5.75974e-07
5.75974e-07
5.75974e-07
5.75974e-07
5.75974e-07
5.72196e-07
5.75041e-07
5.80209e-07
5.78049e-07
5.75974e-07
5.75974e-07
5.75974e-07
5.75974e-07
5.69095e-07
5.74875e-07
5.78106e-07
5.80574e-07
5.77565e-07
5.73457e-07
5.71794e-07
5.71865e-07
5.72189e-07
5.74871e-07
5.75145e-07
5.77529e-07
5.77549e-07
5.76898e-07
5.75039e-07
5.7813e-07
5.73689e-07
5.7324e-07
5.74856e-07
5.7353e-07
5.73973e-07
5.7408e-07
5.73066e-07
5.73075e-07
5.73437e-07
5.74857e-07
5.7583e-07
5.68838e-07
5.68838e-07
5.68838e-07
5.68838e-07
5.70914e-07
5.7043e-07
5.73526e-07
5.68838e-07
5.68838e-07
5.68838e-07
5.68838e-07
5.68838e-07
5.68838e-07
5.66321e-07
5.70398e-07
5.73688e-07
5.73972e-07
5.68838e-07
5.68838e-07
5.68838e-07
5.68838e-07
5.68838e-07
5.68838e-07
5.64663e-07
5.70414e-07
5.7324e-07
5.7408e-07
5.68838e-07
5.68838e-07
5.68838e-07
5.68838e-07
5.68838e-07
5.68838e-07
5.64733e-07
5.69763e-07
5.73065e-07
5.68838e-07
5.68838e-07
5.68838e-07
5.68838e-07
5.68838e-07
5.68838e-07
5.65059e-07
5.67904e-07
5.73072e-07
5.70912e-07
5.68838e-07
5.68838e-07
5.68838e-07
5.68838e-07
5.61958e-07
5.67738e-07
5.70969e-07
5.73437e-07
5.70428e-07
5.6632e-07
5.64657e-07
5.64726e-07
5.65051e-07
5.67734e-07
5.68008e-07
5.70393e-07
5.70411e-07
5.69759e-07
5.67901e-07
5.70992e-07
5.66553e-07
5.66105e-07
5.6772e-07
5.66394e-07
5.66837e-07
5.66944e-07
5.65931e-07
5.6594e-07
5.66301e-07
5.67721e-07
5.68695e-07
5.61702e-07
5.61702e-07
5.61702e-07
5.61702e-07
5.63778e-07
5.63294e-07
5.66391e-07
5.61702e-07
5.61702e-07
5.61702e-07
5.61702e-07
5.61702e-07
5.61702e-07
5.59185e-07
5.63262e-07
5.66552e-07
5.66837e-07
5.61702e-07
5.61702e-07
5.61702e-07
5.61702e-07
5.61702e-07
5.61702e-07
5.57527e-07
5.63279e-07
5.66104e-07
5.66945e-07
5.61702e-07
5.61702e-07
5.61702e-07
5.61702e-07
5.61702e-07
5.61702e-07
5.57597e-07
5.62627e-07
5.6593e-07
5.61702e-07
5.61702e-07
5.61702e-07
5.61702e-07
5.61702e-07
5.61702e-07
5.57923e-07
5.60768e-07
5.65937e-07
5.63776e-07
5.61702e-07
5.61702e-07
5.61702e-07
5.61702e-07
5.54822e-07
5.60603e-07
5.63834e-07
5.66302e-07
5.63293e-07
5.59185e-07
5.57523e-07
5.57593e-07
5.57916e-07
5.60599e-07
5.60872e-07
5.63256e-07
5.63276e-07
5.62625e-07
5.60765e-07
5.63858e-07
5.59418e-07
5.5897e-07
5.60585e-07
5.59259e-07
5.59702e-07
5.59809e-07
5.58795e-07
5.58804e-07
5.59167e-07
5.60586e-07
5.61559e-07
5.54567e-07
5.54567e-07
5.54567e-07
5.54567e-07
5.56644e-07
5.56159e-07
5.59256e-07
5.54567e-07
5.54567e-07
5.54567e-07
5.54567e-07
5.54567e-07
5.54567e-07
5.5205e-07
5.56126e-07
5.59417e-07
5.59702e-07
5.54567e-07
5.54567e-07
5.54567e-07
5.54567e-07
5.54567e-07
5.54567e-07
5.50392e-07
5.56143e-07
5.58969e-07
5.59809e-07
5.54567e-07
5.54567e-07
5.54567e-07
5.54567e-07
5.54567e-07
5.54567e-07
5.50462e-07
5.55492e-07
5.58794e-07
5.54567e-07
5.54567e-07
5.54567e-07
5.54567e-07
5.54567e-07
5.54567e-07
5.50788e-07
5.53633e-07
5.58802e-07
5.56641e-07
5.54567e-07
5.54567e-07
5.54567e-07
5.54567e-07
5.47687e-07
5.53468e-07
5.56699e-07
5.59167e-07
5.56157e-07
5.52049e-07
5.50388e-07
5.50457e-07
5.50781e-07
5.53463e-07
5.53737e-07
5.56121e-07
5.56141e-07
5.5549e-07
5.53631e-07
5.56722e-07
5.52282e-07
5.51834e-07
5.5345e-07
5.52122e-07
5.52566e-07
5.52673e-07
5.51659e-07
5.51668e-07
5.5203e-07
5.5345e-07
5.54423e-07
5.47431e-07
5.47431e-07
5.47431e-07
5.4743e-07
5.49508e-07
5.49023e-07
5.52119e-07
5.4743e-07
5.4743e-07
5.4743e-07
5.4743e-07
5.47431e-07
5.4743e-07
5.44914e-07
5.48991e-07
5.52281e-07
5.52566e-07
5.4743e-07
5.4743e-07
5.4743e-07
5.4743e-07
5.4743e-07
5.4743e-07
5.43256e-07
5.49008e-07
5.51834e-07
5.52673e-07
5.4743e-07
5.4743e-07
5.4743e-07
5.4743e-07
5.4743e-07
5.4743e-07
5.43326e-07
5.48356e-07
5.51658e-07
5.4743e-07
5.47431e-07
5.4743e-07
5.4743e-07
5.47431e-07
5.4743e-07
5.43652e-07
5.46498e-07
5.51666e-07
5.49505e-07
5.4743e-07
5.4743e-07
5.4743e-07
5.4743e-07
5.40551e-07
5.46332e-07
5.49563e-07
5.52031e-07
5.49021e-07
5.44913e-07
5.43252e-07
5.43321e-07
5.43644e-07
5.46327e-07
5.46601e-07
5.48985e-07
5.49005e-07
5.48354e-07
5.46494e-07
5.49585e-07
5.45145e-07
5.44697e-07
5.46312e-07
5.44985e-07
5.45429e-07
5.45536e-07
5.44522e-07
5.4453e-07
5.44893e-07
5.46313e-07
5.47286e-07
5.40294e-07
5.40294e-07
5.40294e-07
5.40294e-07
5.42371e-07
5.41886e-07
5.44982e-07
5.40294e-07
5.40294e-07
5.40294e-07
5.40294e-07
5.40294e-07
5.40294e-07
5.37777e-07
5.41854e-07
5.45144e-07
5.45429e-07
5.40294e-07
5.40294e-07
5.40294e-07
5.40294e-07
5.40294e-07
5.40294e-07
5.36119e-07
5.41871e-07
5.44697e-07
5.45536e-07
5.40294e-07
5.40294e-07
5.40294e-07
5.40294e-07
5.40294e-07
5.40294e-07
5.36189e-07
5.41219e-07
5.44521e-07
5.40294e-07
5.40294e-07
5.40294e-07
5.40294e-07
5.40294e-07
5.40294e-07
5.36515e-07
5.3936e-07
5.44529e-07
5.42368e-07
5.40294e-07
5.40294e-07
5.40294e-07
5.40294e-07
5.33414e-07
5.39195e-07
5.42426e-07
5.44894e-07
5.41884e-07
5.37776e-07
5.36115e-07
5.36184e-07
5.36508e-07
5.3919e-07
5.39464e-07
5.41848e-07
5.41868e-07
5.41217e-07
5.39357e-07
5.42448e-07
5.38008e-07
5.3756e-07
5.39176e-07
5.37849e-07
5.38292e-07
5.38399e-07
5.37386e-07
5.37393e-07
5.37756e-07
5.39177e-07
5.4015e-07
5.33157e-07
5.33158e-07
5.33158e-07
5.33158e-07
5.35235e-07
5.3475e-07
5.37846e-07
5.33158e-07
5.33158e-07
5.33158e-07
5.33158e-07
5.33158e-07
5.33158e-07
5.30641e-07
5.34719e-07
5.38008e-07
5.38292e-07
5.33158e-07
5.33158e-07
5.33158e-07
5.33158e-07
5.33158e-07
5.33158e-07
5.28983e-07
5.34734e-07
5.3756e-07
5.384e-07
5.33158e-07
5.33158e-07
5.33158e-07
5.33158e-07
5.33158e-07
5.33158e-07
5.29053e-07
5.34083e-07
5.37385e-07
5.33158e-07
5.33158e-07
5.33158e-07
5.33158e-07
5.33158e-07
5.33158e-07
5.29379e-07
5.32224e-07
5.37393e-07
5.35232e-07
5.33158e-07
5.33158e-07
5.33158e-07
5.33158e-07
5.26278e-07
5.32058e-07
5.3529e-07
5.37757e-07
5.34748e-07
5.3064e-07
5.28979e-07
5.29048e-07
5.29371e-07
5.32054e-07
5.32328e-07
5.34711e-07
5.34732e-07
5.3408e-07
5.32221e-07
5.35311e-07
5.30872e-07
5.30424e-07
5.32041e-07
5.30713e-07
5.31157e-07
5.31264e-07
5.3025e-07
5.30259e-07
5.30621e-07
5.32042e-07
5.33015e-07
5.26022e-07
5.26022e-07
5.26022e-07
5.26022e-07
5.28099e-07
5.27614e-07
5.30711e-07
5.26022e-07
5.26022e-07
5.26022e-07
5.26022e-07
5.26022e-07
5.26022e-07
5.23505e-07
5.27583e-07
5.30872e-07
5.31157e-07
5.26022e-07
5.26022e-07
5.26022e-07
5.26022e-07
5.26022e-07
5.26022e-07
5.21847e-07
5.27599e-07
5.30425e-07
5.31265e-07
5.26022e-07
5.26022e-07
5.26022e-07
5.26022e-07
5.26022e-07
5.26022e-07
5.21917e-07
5.26947e-07
5.3025e-07
5.26022e-07
5.26022e-07
5.26022e-07
5.26022e-07
5.26022e-07
5.26022e-07
5.22243e-07
5.25089e-07
5.30257e-07
5.28097e-07
5.26022e-07
5.26022e-07
5.26022e-07
5.26022e-07
5.19142e-07
5.24923e-07
5.28154e-07
5.30622e-07
5.27613e-07
5.23505e-07
5.21843e-07
5.21912e-07
5.22236e-07
5.24919e-07
5.25193e-07
5.27576e-07
5.27596e-07
5.26945e-07
5.25086e-07
5.28176e-07
5.23736e-07
5.23288e-07
5.24907e-07
5.23576e-07
5.2402e-07
5.24127e-07
5.23113e-07
5.23122e-07
5.23485e-07
5.24906e-07
5.25879e-07
5.18885e-07
5.18885e-07
5.18885e-07
5.18885e-07
5.20963e-07
5.20478e-07
5.23575e-07
5.18886e-07
5.18886e-07
5.18886e-07
5.18886e-07
5.18886e-07
5.18886e-07
5.16369e-07
5.20447e-07
5.23736e-07
5.24021e-07
5.18886e-07
5.18886e-07
5.18886e-07
5.18886e-07
5.18886e-07
5.18886e-07
5.14711e-07
5.20463e-07
5.23289e-07
5.24129e-07
5.18886e-07
5.18886e-07
5.18886e-07
5.18886e-07
5.18886e-07
5.18886e-07
5.14781e-07
5.19811e-07
5.23114e-07
5.18886e-07
5.18886e-07
5.18886e-07
5.18886e-07
5.18886e-07
5.18886e-07
5.15107e-07
5.17952e-07
5.23121e-07
5.2096e-07
5.18886e-07
5.18886e-07
5.18886e-07
5.18886e-07
5.12006e-07
5.17787e-07
5.21018e-07
5.23486e-07
5.20477e-07
5.16368e-07
5.14707e-07
5.14776e-07
5.151e-07
5.17782e-07
5.18056e-07
5.2044e-07
5.2046e-07
5.19809e-07
5.17949e-07
5.2104e-07
5.16603e-07
5.16153e-07
5.17751e-07
5.16446e-07
5.16886e-07
5.16992e-07
5.15978e-07
5.15986e-07
5.16347e-07
5.17768e-07
5.18741e-07
5.1175e-07
5.1175e-07
5.1175e-07
5.1175e-07
5.13827e-07
5.13342e-07
5.16439e-07
5.1175e-07
5.1175e-07
5.1175e-07
5.1175e-07
5.1175e-07
5.1175e-07
5.09233e-07
5.1331e-07
5.166e-07
5.16885e-07
5.1175e-07
5.1175e-07
5.1175e-07
5.1175e-07
5.1175e-07
5.1175e-07
5.07575e-07
5.13326e-07
5.16153e-07
5.16993e-07
5.11751e-07
5.1175e-07
5.1175e-07
5.1175e-07
5.1175e-07
5.1175e-07
5.07645e-07
5.12675e-07
5.15978e-07
5.1175e-07
5.11751e-07
5.1175e-07
5.11751e-07
5.1175e-07
5.1175e-07
5.07971e-07
5.10816e-07
5.15985e-07
5.13825e-07
5.1175e-07
5.1175e-07
5.11749e-07
5.1175e-07
5.0487e-07
5.10651e-07
5.13882e-07
5.1635e-07
5.13341e-07
5.09233e-07
5.07571e-07
5.0764e-07
5.07964e-07
5.10647e-07
5.1092e-07
5.13303e-07
5.13324e-07
5.12673e-07
5.10813e-07
5.13904e-07
5.09468e-07
5.09018e-07
5.10616e-07
5.09311e-07
5.09751e-07
5.09857e-07
5.08842e-07
5.08851e-07
5.09213e-07
5.10633e-07
5.11606e-07
5.04615e-07
5.04615e-07
5.04615e-07
5.04615e-07
5.06692e-07
5.06208e-07
5.09304e-07
5.04615e-07
5.04615e-07
5.04615e-07
5.04615e-07
5.04615e-07
5.04615e-07
5.02099e-07
5.06176e-07
5.09465e-07
5.0975e-07
5.04615e-07
5.04615e-07
5.04615e-07
5.04615e-07
5.04615e-07
5.04615e-07
5.00441e-07
5.06192e-07
5.09018e-07
5.09857e-07
5.04615e-07
5.04615e-07
5.04615e-07
5.04615e-07
5.04615e-07
5.04615e-07
5.0051e-07
5.0554e-07
5.08843e-07
5.04615e-07
5.04615e-07
5.04615e-07
5.04615e-07
5.04615e-07
5.04615e-07
5.00837e-07
5.03682e-07
5.0885e-07
5.0669e-07
5.04615e-07
5.04615e-07
5.04615e-07
5.04615e-07
4.97736e-07
5.03516e-07
5.06748e-07
5.09215e-07
5.06206e-07
5.02097e-07
5.00435e-07
5.00504e-07
5.00829e-07
5.03512e-07
5.03785e-07
5.06169e-07
5.06189e-07
5.05538e-07
5.03678e-07
5.06769e-07
5.02334e-07
5.01884e-07
5.0348e-07
5.02176e-07
5.02617e-07
5.02723e-07
5.01711e-07
5.01736e-07
5.02063e-07
5.03497e-07
5.04471e-07
4.97479e-07
4.97479e-07
4.97479e-07
4.97479e-07
4.99553e-07
4.9907e-07
5.02167e-07
4.97479e-07
4.97479e-07
4.97479e-07
4.97479e-07
4.97479e-07
4.9748e-07
4.94963e-07
4.9904e-07
5.02329e-07
5.02614e-07
4.97479e-07
4.97479e-07
4.97479e-07
4.97479e-07
4.97479e-07
4.97479e-07
4.93305e-07
4.99056e-07
5.01882e-07
5.02721e-07
4.97479e-07
4.97479e-07
4.97479e-07
4.97479e-07
4.97479e-07
4.97479e-07
4.93375e-07
4.98405e-07
5.01707e-07
4.97479e-07
4.97479e-07
4.97479e-07
4.97479e-07
4.97479e-07
4.97479e-07
4.93701e-07
4.96546e-07
5.01714e-07
4.99554e-07
4.97479e-07
4.97479e-07
4.97479e-07
4.97479e-07
4.906e-07
4.9638e-07
4.99612e-07
5.02079e-07
4.9907e-07
4.94961e-07
4.933e-07
4.93368e-07
4.93693e-07
4.96376e-07
4.9665e-07
4.99033e-07
4.99054e-07
4.98402e-07
4.96543e-07
4.99634e-07
4.95193e-07
4.94745e-07
4.96364e-07
4.95034e-07
4.95477e-07
4.95584e-07
4.9457e-07
4.9458e-07
4.94946e-07
4.96362e-07
4.97336e-07
4.90343e-07
4.90343e-07
4.90343e-07
4.90343e-07
4.92419e-07
4.91936e-07
4.95031e-07
4.90343e-07
4.90343e-07
4.90343e-07
4.90343e-07
4.90343e-07
4.90343e-07
4.87827e-07
4.91905e-07
4.95193e-07
4.95477e-07
4.90343e-07
4.90343e-07
4.90343e-07
4.90343e-07
4.90343e-07
4.90343e-07
4.86168e-07
4.9192e-07
4.94745e-07
4.95585e-07
4.90343e-07
4.90343e-07
4.90343e-07
4.90343e-07
4.90343e-07
4.90343e-07
4.86238e-07
4.91268e-07
4.9457e-07
4.90343e-07
4.90343e-07
4.90343e-07
4.90343e-07
4.90343e-07
4.90343e-07
4.86564e-07
4.89409e-07
4.94578e-07
4.92417e-07
4.90343e-07
4.90343e-07
4.90343e-07
4.90343e-07
4.83463e-07
4.89244e-07
4.92475e-07
4.94942e-07
4.91933e-07
4.87824e-07
4.86164e-07
4.86232e-07
4.86556e-07
4.89239e-07
4.89513e-07
4.91897e-07
4.91917e-07
4.91266e-07
4.89406e-07
4.92497e-07
4.88058e-07
4.87611e-07
4.89226e-07
4.87898e-07
4.88341e-07
4.88449e-07
4.87435e-07
4.87443e-07
4.87803e-07
4.89226e-07
4.90199e-07
4.83207e-07
4.83207e-07
4.83207e-07
4.83207e-07
4.85282e-07
4.84798e-07
4.87895e-07
4.83207e-07
4.83207e-07
4.83207e-07
4.83207e-07
4.83207e-07
4.83207e-07
4.8069e-07
4.84768e-07
4.88057e-07
4.88341e-07
4.83207e-07
4.83207e-07
4.83207e-07
4.83207e-07
4.83207e-07
4.83207e-07
4.79032e-07
4.84784e-07
4.87609e-07
4.88449e-07
4.83207e-07
4.83207e-07
4.83207e-07
4.83207e-07
4.83207e-07
4.83207e-07
4.79102e-07
4.84132e-07
4.87434e-07
4.83207e-07
4.83207e-07
4.83207e-07
4.83207e-07
4.83207e-07
4.83207e-07
4.79428e-07
4.82273e-07
4.87442e-07
4.85281e-07
4.83207e-07
4.83207e-07
4.83207e-07
4.83207e-07
4.76327e-07
4.82108e-07
4.85339e-07
4.87807e-07
4.84797e-07
4.80688e-07
4.79028e-07
4.79096e-07
4.7942e-07
4.82103e-07
4.82377e-07
4.84761e-07
4.84781e-07
4.84131e-07
4.8227e-07
4.85361e-07
4.80922e-07
4.80474e-07
4.82087e-07
4.80762e-07
4.81205e-07
4.81312e-07
4.80298e-07
4.80306e-07
4.80669e-07
4.8209e-07
4.83063e-07
4.76071e-07
4.76071e-07
4.76071e-07
4.7607e-07
4.78146e-07
4.77662e-07
4.80759e-07
4.7607e-07
4.7607e-07
4.7607e-07
4.7607e-07
4.76071e-07
4.7607e-07
4.73554e-07
4.77631e-07
4.8092e-07
4.81205e-07
4.7607e-07
4.7607e-07
4.7607e-07
4.7607e-07
4.7607e-07
4.7607e-07
4.71896e-07
4.77647e-07
4.80473e-07
4.81312e-07
4.7607e-07
4.7607e-07
4.7607e-07
4.7607e-07
4.7607e-07
4.7607e-07
4.71965e-07
4.76995e-07
4.80298e-07
4.7607e-07
4.7607e-07
4.7607e-07
4.7607e-07
4.7607e-07
4.7607e-07
4.72292e-07
4.75137e-07
4.80305e-07
4.78145e-07
4.7607e-07
4.7607e-07
4.7607e-07
4.7607e-07
4.69191e-07
4.74971e-07
4.78202e-07
4.8067e-07