/*--------------------------------*- C++ -*----------------------------------*\
| =========                 |                                                 |
| \\      /  F ield         | OpenFOAM: The Open Source CFD Toolbox           |
|  \\    /   O peration     | Version:  v2012                                 |
|   \\  /    A nd           | Website:  www.openfoam.com                      |
|    \\/     M anipulation  |                                                 |
\*---------------------------------------------------------------------------*/
FoamFile
{
    version     2.0;
    format      ascii;
    class       volScalarField;
    location    "10.5";
    object      p;
}
// * * * * * * * * * * * * * * * * * * * * * * * * * * * * * * * * * * * * * //

dimensions      [0 2 -2 0 0 0 0];


internalField   nonuniform List<scalar> 
189320
(
1.54111e-06
1.54005e-06
1.53914e-06
1.54023e-06
1.54052e-06
1.5406e-06
1.54039e-06
1.54078e-06
1.53904e-06
1.53915e-06
1.54042e-06
1.54106e-06
1.54104e-06
1.54103e-06
1.54107e-06
1.5409e-06
1.53974e-06
1.54023e-06
1.54106e-06
1.54107e-06
1.54096e-06
1.54093e-06
1.54101e-06
1.54108e-06
1.54071e-06
1.54095e-06
1.54112e-06
1.54052e-06
1.54104e-06
1.54096e-06
1.54083e-06
1.54079e-06
1.54089e-06
1.54102e-06
1.54088e-06
1.54094e-06
1.54005e-06
1.5406e-06
1.54103e-06
1.54093e-06
1.54079e-06
1.54076e-06
1.54086e-06
1.541e-06
1.54097e-06
1.53989e-06
1.54039e-06
1.54107e-06
1.54101e-06
1.54089e-06
1.54086e-06
1.54095e-06
1.54106e-06
1.54083e-06
1.54111e-06
1.54077e-06
1.5409e-06
1.54108e-06
1.54102e-06
1.541e-06
1.54106e-06
1.54104e-06
1.54032e-06
1.54063e-06
1.53903e-06
1.53974e-06
1.54071e-06
1.54088e-06
1.54097e-06
1.54083e-06
1.54032e-06
1.54008e-06
1.54095e-06
1.54094e-06
1.53989e-06
1.54111e-06
1.54063e-06
1.52325e-06
1.52314e-06
1.523e-06
1.52147e-06
1.52163e-06
1.52158e-06
1.52162e-06
1.52305e-06
1.52309e-06
1.52299e-06
1.52105e-06
1.51912e-06
1.51933e-06
1.51933e-06
1.51912e-06
1.52146e-06
1.52166e-06
1.52146e-06
1.51912e-06
1.51945e-06
1.51962e-06
1.51962e-06
1.51945e-06
1.51912e-06
1.52167e-06
1.52327e-06
1.52325e-06
1.52163e-06
1.51933e-06
1.51962e-06
1.51978e-06
1.51978e-06
1.51962e-06
1.51933e-06
1.52173e-06
1.52299e-06
1.52314e-06
1.52158e-06
1.51933e-06
1.51962e-06
1.51978e-06
1.51978e-06
1.51962e-06
1.51933e-06
1.52174e-06
1.52184e-06
1.52162e-06
1.51912e-06
1.51945e-06
1.51962e-06
1.51962e-06
1.51945e-06
1.51912e-06
1.52171e-06
1.52313e-06
1.52305e-06
1.52146e-06
1.51912e-06
1.51932e-06
1.51933e-06
1.51912e-06
1.52146e-06
1.52179e-06
1.52331e-06
1.52309e-06
1.52165e-06
1.52167e-06
1.52173e-06
1.52173e-06
1.52171e-06
1.52178e-06
1.523e-06
1.52326e-06
1.52298e-06
1.52183e-06
1.52312e-06
1.5233e-06
1.50756e-06
1.50741e-06
1.50745e-06
1.50564e-06
1.50552e-06
1.5055e-06
1.50547e-06
1.50732e-06
1.50752e-06
1.50745e-06
1.50534e-06
1.50268e-06
1.50294e-06
1.50294e-06
1.50268e-06
1.50566e-06
1.50592e-06
1.50564e-06
1.50268e-06
1.50298e-06
1.50312e-06
1.50312e-06
1.50298e-06
1.50268e-06
1.5062e-06
1.50759e-06
1.50755e-06
1.50552e-06
1.50294e-06
1.50312e-06
1.50322e-06
1.50322e-06
1.50312e-06
1.50294e-06
1.50619e-06
1.50724e-06
1.50741e-06
1.50549e-06
1.50294e-06
1.50312e-06
1.50322e-06
1.50322e-06
1.50311e-06
1.50294e-06
1.50612e-06
1.50603e-06
1.50547e-06
1.50268e-06
1.50298e-06
1.50312e-06
1.50312e-06
1.50298e-06
1.50268e-06
1.50616e-06
1.50744e-06
1.50732e-06
1.50566e-06
1.50268e-06
1.50294e-06
1.50294e-06
1.50268e-06
1.50635e-06
1.50612e-06
1.50763e-06
1.50752e-06
1.50592e-06
1.5062e-06
1.50619e-06
1.50612e-06
1.50616e-06
1.50612e-06
1.50729e-06
1.50759e-06
1.50724e-06
1.50603e-06
1.50744e-06
1.50762e-06
1.49147e-06
1.49132e-06
1.49136e-06
1.48953e-06
1.48932e-06
1.48919e-06
1.48938e-06
1.49119e-06
1.49143e-06
1.49136e-06
1.48929e-06
1.48646e-06
1.48666e-06
1.48666e-06
1.48646e-06
1.48953e-06
1.48981e-06
1.48953e-06
1.48646e-06
1.48665e-06
1.48675e-06
1.48675e-06
1.48665e-06
1.48646e-06
1.48992e-06
1.49147e-06
1.49147e-06
1.48932e-06
1.48666e-06
1.48675e-06
1.4868e-06
1.4868e-06
1.48675e-06
1.48666e-06
1.48985e-06
1.49107e-06
1.49132e-06
1.48919e-06
1.48666e-06
1.48675e-06
1.4868e-06
1.4868e-06
1.48675e-06
1.48666e-06
1.48979e-06
1.48991e-06
1.48938e-06
1.48646e-06
1.48665e-06
1.48675e-06
1.48675e-06
1.48665e-06
1.48646e-06
1.48996e-06
1.49134e-06
1.49119e-06
1.48954e-06
1.48646e-06
1.48666e-06
1.48666e-06
1.48646e-06
1.48997e-06
1.48993e-06
1.49151e-06
1.49143e-06
1.48981e-06
1.48992e-06
1.48985e-06
1.4898e-06
1.48997e-06
1.48994e-06
1.49119e-06
1.49147e-06
1.49108e-06
1.48992e-06
1.49135e-06
1.49151e-06
1.47534e-06
1.47518e-06
1.47516e-06
1.47339e-06
1.47324e-06
1.47316e-06
1.47328e-06
1.47501e-06
1.47523e-06
1.47516e-06
1.47305e-06
1.47013e-06
1.47021e-06
1.47021e-06
1.47013e-06
1.47323e-06
1.47358e-06
1.47339e-06
1.47013e-06
1.47022e-06
1.47027e-06
1.47027e-06
1.47022e-06
1.47013e-06
1.47371e-06
1.47531e-06
1.47534e-06
1.47324e-06
1.47021e-06
1.47027e-06
1.4703e-06
1.4703e-06
1.47027e-06
1.4702e-06
1.47378e-06
1.47496e-06
1.47518e-06
1.47316e-06
1.47021e-06
1.47027e-06
1.4703e-06
1.4703e-06
1.47027e-06
1.4702e-06
1.47376e-06
1.47374e-06
1.47328e-06
1.47013e-06
1.47022e-06
1.47027e-06
1.47027e-06
1.47022e-06
1.47013e-06
1.47384e-06
1.47523e-06
1.47501e-06
1.47323e-06
1.47013e-06
1.47021e-06
1.47021e-06
1.47013e-06
1.47354e-06
1.47369e-06
1.47534e-06
1.47523e-06
1.47358e-06
1.47371e-06
1.47379e-06
1.47376e-06
1.47384e-06
1.47369e-06
1.47497e-06
1.47531e-06
1.47496e-06
1.47374e-06
1.47523e-06
1.47534e-06
1.4591e-06
1.45894e-06
1.45891e-06
1.45714e-06
1.457e-06
1.45693e-06
1.45703e-06
1.45876e-06
1.45897e-06
1.45891e-06
1.45677e-06
1.45384e-06
1.45387e-06
1.45387e-06
1.45384e-06
1.45694e-06
1.45732e-06
1.45714e-06
1.45384e-06
1.45388e-06
1.4539e-06
1.4539e-06
1.45388e-06
1.45384e-06
1.45744e-06
1.45906e-06
1.4591e-06
1.45701e-06
1.45387e-06
1.4539e-06
1.45391e-06
1.45391e-06
1.4539e-06
1.45387e-06
1.45752e-06
1.45872e-06
1.45894e-06
1.45693e-06
1.45387e-06
1.4539e-06
1.45391e-06
1.45392e-06
1.4539e-06
1.45387e-06
1.4575e-06
1.45749e-06
1.45703e-06
1.45384e-06
1.45388e-06
1.4539e-06
1.4539e-06
1.45388e-06
1.45384e-06
1.45756e-06
1.459e-06
1.45876e-06
1.45694e-06
1.45384e-06
1.45387e-06
1.45387e-06
1.45384e-06
1.45721e-06
1.45743e-06
1.45909e-06
1.45897e-06
1.45732e-06
1.45744e-06
1.45752e-06
1.4575e-06
1.45756e-06
1.45743e-06
1.45872e-06
1.45907e-06
1.45873e-06
1.45749e-06
1.459e-06
1.45909e-06
1.44286e-06
1.44269e-06
1.44265e-06
1.44089e-06
1.44076e-06
1.44069e-06
1.44079e-06
1.44251e-06
1.44272e-06
1.44265e-06
1.44051e-06
1.43756e-06
1.43757e-06
1.43758e-06
1.43756e-06
1.44067e-06
1.44106e-06
1.44089e-06
1.43757e-06
1.43758e-06
1.43759e-06
1.43759e-06
1.43758e-06
1.43757e-06
1.44118e-06
1.44281e-06
1.44286e-06
1.44076e-06
1.43757e-06
1.43759e-06
1.4376e-06
1.4376e-06
1.43759e-06
1.43757e-06
1.44128e-06
1.44248e-06
1.44269e-06
1.44069e-06
1.43757e-06
1.43759e-06
1.4376e-06
1.4376e-06
1.43759e-06
1.43757e-06
1.44125e-06
1.44124e-06
1.44079e-06
1.43756e-06
1.43758e-06
1.43759e-06
1.43759e-06
1.43758e-06
1.43756e-06
1.4413e-06
1.44275e-06
1.4425e-06
1.44067e-06
1.43757e-06
1.43757e-06
1.43757e-06
1.43756e-06
1.44093e-06
1.44117e-06
1.44284e-06
1.44272e-06
1.44106e-06
1.44118e-06
1.44128e-06
1.44125e-06
1.4413e-06
1.44117e-06
1.44246e-06
1.44281e-06
1.44248e-06
1.44124e-06
1.44275e-06
1.44284e-06
1.4266e-06
1.42643e-06
1.42639e-06
1.42463e-06
1.4245e-06
1.42443e-06
1.42452e-06
1.42624e-06
1.42645e-06
1.42639e-06
1.42424e-06
1.42129e-06
1.4213e-06
1.4213e-06
1.4213e-06
1.42441e-06
1.4248e-06
1.42463e-06
1.4213e-06
1.4213e-06
1.42131e-06
1.4213e-06
1.4213e-06
1.42129e-06
1.42492e-06
1.42655e-06
1.4266e-06
1.4245e-06
1.4213e-06
1.4213e-06
1.42131e-06
1.42131e-06
1.4213e-06
1.4213e-06
1.42501e-06
1.42621e-06
1.42644e-06
1.42443e-06
1.4213e-06
1.4213e-06
1.42131e-06
1.42131e-06
1.4213e-06
1.4213e-06
1.42498e-06
1.42498e-06
1.42452e-06
1.42129e-06
1.4213e-06
1.42131e-06
1.42131e-06
1.4213e-06
1.42129e-06
1.42504e-06
1.42649e-06
1.42624e-06
1.42441e-06
1.42129e-06
1.4213e-06
1.4213e-06
1.4213e-06
1.42467e-06
1.42491e-06
1.42658e-06
1.42645e-06
1.4248e-06
1.42492e-06
1.42501e-06
1.42499e-06
1.42504e-06
1.42491e-06
1.4262e-06
1.42655e-06
1.42622e-06
1.42498e-06
1.42649e-06
1.42658e-06
1.41034e-06
1.41017e-06
1.41012e-06
1.40836e-06
1.40824e-06
1.40817e-06
1.40826e-06
1.40998e-06
1.41019e-06
1.41012e-06
1.40798e-06
1.40503e-06
1.40503e-06
1.40503e-06
1.40503e-06
1.40815e-06
1.40853e-06
1.40836e-06
1.40503e-06
1.40503e-06
1.40503e-06
1.40503e-06
1.40503e-06
1.40503e-06
1.40865e-06
1.41029e-06
1.41033e-06
1.40824e-06
1.40503e-06
1.40503e-06
1.40503e-06
1.40503e-06
1.40503e-06
1.40503e-06
1.40875e-06
1.40995e-06
1.41017e-06
1.40817e-06
1.40503e-06
1.40503e-06
1.40503e-06
1.40503e-06
1.40503e-06
1.40503e-06
1.40872e-06
1.40871e-06
1.40826e-06
1.40503e-06
1.40503e-06
1.40503e-06
1.40503e-06
1.40503e-06
1.40503e-06
1.40877e-06
1.41023e-06
1.40998e-06
1.40814e-06
1.40503e-06
1.40503e-06
1.40503e-06
1.40503e-06
1.4084e-06
1.40864e-06
1.41031e-06
1.41019e-06
1.40853e-06
1.40866e-06
1.40876e-06
1.40872e-06
1.40877e-06
1.40864e-06
1.40993e-06
1.41029e-06
1.40995e-06
1.40871e-06
1.41023e-06
1.41031e-06
1.39407e-06
1.3939e-06
1.39386e-06
1.3921e-06
1.39197e-06
1.3919e-06
1.39199e-06
1.39371e-06
1.39392e-06
1.39386e-06
1.39171e-06
1.38876e-06
1.38876e-06
1.38876e-06
1.38876e-06
1.39188e-06
1.39227e-06
1.3921e-06
1.38876e-06
1.38876e-06
1.38876e-06
1.38876e-06
1.38876e-06
1.38876e-06
1.39239e-06
1.39402e-06
1.39407e-06
1.39197e-06
1.38876e-06
1.38876e-06
1.38876e-06
1.38876e-06
1.38876e-06
1.38876e-06
1.39248e-06
1.39369e-06
1.3939e-06
1.3919e-06
1.38876e-06
1.38876e-06
1.38876e-06
1.38876e-06
1.38876e-06
1.38876e-06
1.39245e-06
1.39245e-06
1.39199e-06
1.38876e-06
1.38876e-06
1.38876e-06
1.38876e-06
1.38876e-06
1.38876e-06
1.39251e-06
1.39396e-06
1.39371e-06
1.39188e-06
1.38876e-06
1.38876e-06
1.38876e-06
1.38876e-06
1.39214e-06
1.39238e-06
1.39405e-06
1.39392e-06
1.39227e-06
1.39239e-06
1.39249e-06
1.39245e-06
1.3925e-06
1.39238e-06
1.39367e-06
1.39403e-06
1.39369e-06
1.39245e-06
1.39396e-06
1.39405e-06
1.37781e-06
1.37764e-06
1.37759e-06
1.37583e-06
1.37571e-06
1.37563e-06
1.37573e-06
1.37745e-06
1.37766e-06
1.37759e-06
1.37545e-06
1.3725e-06
1.3725e-06
1.3725e-06
1.3725e-06
1.37561e-06
1.376e-06
1.37583e-06
1.3725e-06
1.3725e-06
1.3725e-06
1.3725e-06
1.3725e-06
1.3725e-06
1.37612e-06
1.37776e-06
1.3778e-06
1.37571e-06
1.3725e-06
1.3725e-06
1.3725e-06
1.3725e-06
1.3725e-06
1.3725e-06
1.37622e-06
1.37742e-06
1.37764e-06
1.37564e-06
1.3725e-06
1.3725e-06
1.3725e-06
1.3725e-06
1.3725e-06
1.3725e-06
1.37618e-06
1.37618e-06
1.37573e-06
1.3725e-06
1.3725e-06
1.3725e-06
1.3725e-06
1.3725e-06
1.3725e-06
1.37624e-06
1.3777e-06
1.37745e-06
1.37561e-06
1.3725e-06
1.3725e-06
1.3725e-06
1.3725e-06
1.37587e-06
1.37611e-06
1.37778e-06
1.37766e-06
1.376e-06
1.37612e-06
1.37622e-06
1.37619e-06
1.37624e-06
1.37611e-06
1.3774e-06
1.37776e-06
1.37742e-06
1.37618e-06
1.3777e-06
1.37778e-06
1.36154e-06
1.36137e-06
1.36133e-06
1.35957e-06
1.35944e-06
1.35937e-06
1.35946e-06
1.36118e-06
1.36139e-06
1.36133e-06
1.35918e-06
1.35623e-06
1.35623e-06
1.35623e-06
1.35623e-06
1.35935e-06
1.35974e-06
1.35956e-06
1.35623e-06
1.35623e-06
1.35623e-06
1.35623e-06
1.35623e-06
1.35623e-06
1.35986e-06
1.36149e-06
1.36154e-06
1.35944e-06
1.35623e-06
1.35623e-06
1.35623e-06
1.35623e-06
1.35623e-06
1.35623e-06
1.35995e-06
1.36115e-06
1.36137e-06
1.35937e-06
1.35623e-06
1.35623e-06
1.35623e-06
1.35623e-06
1.35623e-06
1.35623e-06
1.35992e-06
1.35992e-06
1.35946e-06
1.35623e-06
1.35623e-06
1.35623e-06
1.35623e-06
1.35623e-06
1.35623e-06
1.35998e-06
1.36143e-06
1.36118e-06
1.35935e-06
1.35623e-06
1.35623e-06
1.35623e-06
1.35623e-06
1.35961e-06
1.35985e-06
1.36152e-06
1.36139e-06
1.35974e-06
1.35986e-06
1.35996e-06
1.35992e-06
1.35997e-06
1.35985e-06
1.36114e-06
1.36149e-06
1.36116e-06
1.35992e-06
1.36143e-06
1.36152e-06
1.34528e-06
1.34511e-06
1.34506e-06
1.3433e-06
1.34318e-06
1.3431e-06
1.3432e-06
1.34492e-06
1.34513e-06
1.34506e-06
1.34292e-06
1.33997e-06
1.33997e-06
1.33997e-06
1.33997e-06
1.34308e-06
1.34347e-06
1.3433e-06
1.33997e-06
1.33997e-06
1.33997e-06
1.33997e-06
1.33997e-06
1.33997e-06
1.34359e-06
1.34523e-06
1.34527e-06
1.34318e-06
1.33997e-06
1.33997e-06
1.33997e-06
1.33997e-06
1.33997e-06
1.33997e-06
1.34369e-06
1.34489e-06
1.34511e-06
1.34311e-06
1.33997e-06
1.33997e-06
1.33997e-06
1.33997e-06
1.33997e-06
1.33997e-06
1.34365e-06
1.34365e-06
1.3432e-06
1.33997e-06
1.33997e-06
1.33997e-06
1.33997e-06
1.33997e-06
1.33997e-06
1.34371e-06
1.34517e-06
1.34492e-06
1.34308e-06
1.33997e-06
1.33997e-06
1.33997e-06
1.33997e-06
1.34334e-06
1.34358e-06
1.34525e-06
1.34513e-06
1.34347e-06
1.34359e-06
1.34369e-06
1.34366e-06
1.34371e-06
1.34358e-06
1.34487e-06
1.34523e-06
1.34489e-06
1.34365e-06
1.34517e-06
1.34525e-06
1.32901e-06
1.32884e-06
1.3288e-06
1.32704e-06
1.32691e-06
1.32684e-06
1.32693e-06
1.32865e-06
1.32886e-06
1.3288e-06
1.32665e-06
1.3237e-06
1.3237e-06
1.3237e-06
1.3237e-06
1.32682e-06
1.32721e-06
1.32704e-06
1.3237e-06
1.3237e-06
1.3237e-06
1.3237e-06
1.3237e-06
1.3237e-06
1.32733e-06
1.32896e-06
1.32901e-06
1.32691e-06
1.3237e-06
1.3237e-06
1.3237e-06
1.3237e-06
1.3237e-06
1.3237e-06
1.32742e-06
1.32863e-06
1.32884e-06
1.32684e-06
1.3237e-06
1.3237e-06
1.3237e-06
1.3237e-06
1.3237e-06
1.3237e-06
1.32739e-06
1.32739e-06
1.32693e-06
1.3237e-06
1.3237e-06
1.3237e-06
1.3237e-06
1.3237e-06
1.3237e-06
1.32745e-06
1.3289e-06
1.32865e-06
1.32682e-06
1.3237e-06
1.3237e-06
1.3237e-06
1.3237e-06
1.32708e-06
1.32732e-06
1.32899e-06
1.32886e-06
1.32721e-06
1.32733e-06
1.32743e-06
1.32739e-06
1.32744e-06
1.32732e-06
1.32861e-06
1.32897e-06
1.32863e-06
1.32739e-06
1.3289e-06
1.32899e-06
1.31275e-06
1.31258e-06
1.31253e-06
1.31077e-06
1.31065e-06
1.31057e-06
1.31067e-06
1.31239e-06
1.3126e-06
1.31253e-06
1.31039e-06
1.30744e-06
1.30744e-06
1.30744e-06
1.30744e-06
1.31056e-06
1.31094e-06
1.31077e-06
1.30744e-06
1.30744e-06
1.30744e-06
1.30744e-06
1.30744e-06
1.30744e-06
1.31106e-06
1.3127e-06
1.31274e-06
1.31065e-06
1.30744e-06
1.30744e-06
1.30744e-06
1.30744e-06
1.30744e-06
1.30744e-06
1.31116e-06
1.31236e-06
1.31258e-06
1.31058e-06
1.30744e-06
1.30744e-06
1.30744e-06
1.30744e-06
1.30744e-06
1.30744e-06
1.31112e-06
1.31112e-06
1.31067e-06
1.30744e-06
1.30744e-06
1.30744e-06
1.30744e-06
1.30744e-06
1.30744e-06
1.31118e-06
1.31264e-06
1.31239e-06
1.31055e-06
1.30744e-06
1.30744e-06
1.30744e-06
1.30744e-06
1.31081e-06
1.31105e-06
1.31272e-06
1.3126e-06
1.31094e-06
1.31106e-06
1.31116e-06
1.31113e-06
1.31118e-06
1.31105e-06
1.31234e-06
1.3127e-06
1.31236e-06
1.31112e-06
1.31264e-06
1.31272e-06
1.29648e-06
1.29631e-06
1.29627e-06
1.29451e-06
1.29438e-06
1.29431e-06
1.2944e-06
1.29612e-06
1.29633e-06
1.29627e-06
1.29412e-06
1.29117e-06
1.29117e-06
1.29117e-06
1.29117e-06
1.29429e-06
1.29468e-06
1.29451e-06
1.29117e-06
1.29117e-06
1.29117e-06
1.29117e-06
1.29117e-06
1.29117e-06
1.2948e-06
1.29643e-06
1.29648e-06
1.29438e-06
1.29117e-06
1.29117e-06
1.29117e-06
1.29117e-06
1.29117e-06
1.29117e-06
1.29489e-06
1.2961e-06
1.29632e-06
1.29431e-06
1.29117e-06
1.29117e-06
1.29117e-06
1.29117e-06
1.29117e-06
1.29117e-06
1.29486e-06
1.29486e-06
1.2944e-06
1.29117e-06
1.29117e-06
1.29117e-06
1.29117e-06
1.29117e-06
1.29117e-06
1.29492e-06
1.29637e-06
1.29612e-06
1.29429e-06
1.29117e-06
1.29117e-06
1.29117e-06
1.29117e-06
1.29455e-06
1.29479e-06
1.29646e-06
1.29633e-06
1.29468e-06
1.2948e-06
1.2949e-06
1.29486e-06
1.29492e-06
1.29479e-06
1.29608e-06
1.29644e-06
1.2961e-06
1.29486e-06
1.29637e-06
1.29646e-06
1.28022e-06
1.28005e-06
1.28001e-06
1.27824e-06
1.27812e-06
1.27805e-06
1.27814e-06
1.27986e-06
1.28007e-06
1.28001e-06
1.27786e-06
1.27491e-06
1.27491e-06
1.27491e-06
1.27491e-06
1.27803e-06
1.27841e-06
1.27824e-06
1.27491e-06
1.27491e-06
1.27491e-06
1.27491e-06
1.27491e-06
1.27491e-06
1.27853e-06
1.28017e-06
1.28021e-06
1.27812e-06
1.27491e-06
1.27491e-06
1.27491e-06
1.27491e-06
1.27491e-06
1.27491e-06
1.27863e-06
1.27983e-06
1.28005e-06
1.27805e-06
1.27491e-06
1.27491e-06
1.27491e-06
1.27491e-06
1.27491e-06
1.27491e-06
1.27859e-06
1.27859e-06
1.27814e-06
1.27491e-06
1.27491e-06
1.27491e-06
1.27491e-06
1.27491e-06
1.27491e-06
1.27865e-06
1.28011e-06
1.27986e-06
1.27802e-06
1.27491e-06
1.27491e-06
1.27491e-06
1.27491e-06
1.27828e-06
1.27852e-06
1.28019e-06
1.28007e-06
1.27841e-06
1.27854e-06
1.27864e-06
1.2786e-06
1.27865e-06
1.27852e-06
1.27981e-06
1.28017e-06
1.27983e-06
1.2786e-06
1.28011e-06
1.28019e-06
1.26395e-06
1.26379e-06
1.26374e-06
1.26198e-06
1.26186e-06
1.26178e-06
1.26187e-06
1.2636e-06
1.26381e-06
1.26374e-06
1.26159e-06
1.25864e-06
1.25864e-06
1.25864e-06
1.25864e-06
1.26176e-06
1.26215e-06
1.26198e-06
1.25864e-06
1.25864e-06
1.25864e-06
1.25864e-06
1.25864e-06
1.25864e-06
1.26227e-06
1.2639e-06
1.26395e-06
1.26186e-06
1.25864e-06
1.25864e-06
1.25864e-06
1.25864e-06
1.25864e-06
1.25864e-06
1.26236e-06
1.26357e-06
1.26379e-06
1.26178e-06
1.25864e-06
1.25864e-06
1.25864e-06
1.25864e-06
1.25864e-06
1.25864e-06
1.26233e-06
1.26233e-06
1.26188e-06
1.25864e-06
1.25864e-06
1.25864e-06
1.25864e-06
1.25864e-06
1.25864e-06
1.26239e-06
1.26384e-06
1.26359e-06
1.26176e-06
1.25864e-06
1.25864e-06
1.25864e-06
1.25864e-06
1.26202e-06
1.26226e-06
1.26393e-06
1.26381e-06
1.26215e-06
1.26227e-06
1.26237e-06
1.26234e-06
1.26239e-06
1.26226e-06
1.26355e-06
1.26391e-06
1.26357e-06
1.26233e-06
1.26385e-06
1.26393e-06
1.24769e-06
1.24752e-06
1.24748e-06
1.24571e-06
1.24559e-06
1.24552e-06
1.24561e-06
1.24733e-06
1.24754e-06
1.24748e-06
1.24533e-06
1.24238e-06
1.24238e-06
1.24238e-06
1.24238e-06
1.2455e-06
1.24589e-06
1.24571e-06
1.24238e-06
1.24238e-06
1.24238e-06
1.24238e-06
1.24238e-06
1.24238e-06
1.246e-06
1.24764e-06
1.24769e-06
1.24559e-06
1.24238e-06
1.24238e-06
1.24238e-06
1.24238e-06
1.24238e-06
1.24238e-06
1.2461e-06
1.2473e-06
1.24752e-06
1.24552e-06
1.24238e-06
1.24238e-06
1.24238e-06
1.24238e-06
1.24238e-06
1.24238e-06
1.24607e-06
1.24607e-06
1.24561e-06
1.24238e-06
1.24238e-06
1.24238e-06
1.24238e-06
1.24238e-06
1.24238e-06
1.24613e-06
1.24758e-06
1.24733e-06
1.2455e-06
1.24238e-06
1.24238e-06
1.24238e-06
1.24238e-06
1.24575e-06
1.24599e-06
1.24766e-06
1.24754e-06
1.24589e-06
1.24601e-06
1.24611e-06
1.24607e-06
1.24612e-06
1.24599e-06
1.24728e-06
1.24764e-06
1.24731e-06
1.24607e-06
1.24759e-06
1.24767e-06
1.23142e-06
1.23126e-06
1.23121e-06
1.22945e-06
1.22933e-06
1.22925e-06
1.22935e-06
1.23107e-06
1.23128e-06
1.23121e-06
1.22907e-06
1.22612e-06
1.22612e-06
1.22612e-06
1.22612e-06
1.22923e-06
1.22962e-06
1.22945e-06
1.22612e-06
1.22612e-06
1.22612e-06
1.22612e-06
1.22612e-06
1.22612e-06
1.22974e-06
1.23138e-06
1.23142e-06
1.22933e-06
1.22612e-06
1.22612e-06
1.22612e-06
1.22612e-06
1.22612e-06
1.22612e-06
1.22984e-06
1.23104e-06
1.23126e-06
1.22926e-06
1.22612e-06
1.22612e-06
1.22612e-06
1.22612e-06
1.22612e-06
1.22612e-06
1.2298e-06
1.2298e-06
1.22935e-06
1.22612e-06
1.22612e-06
1.22612e-06
1.22612e-06
1.22612e-06
1.22612e-06
1.22986e-06
1.23132e-06
1.23107e-06
1.22923e-06
1.22612e-06
1.22612e-06
1.22612e-06
1.22612e-06
1.22949e-06
1.22973e-06
1.2314e-06
1.23128e-06
1.22962e-06
1.22974e-06
1.22985e-06
1.22981e-06
1.22986e-06
1.22973e-06
1.23102e-06
1.23138e-06
1.23104e-06
1.22981e-06
1.23133e-06
1.2314e-06
1.21516e-06
1.21499e-06
1.21495e-06
1.21319e-06
1.21306e-06
1.21299e-06
1.21308e-06
1.2148e-06
1.21502e-06
1.21495e-06
1.2128e-06
1.20985e-06
1.20985e-06
1.20985e-06
1.20985e-06
1.21297e-06
1.21336e-06
1.21319e-06
1.20985e-06
1.20985e-06
1.20985e-06
1.20985e-06
1.20985e-06
1.20985e-06
1.21348e-06
1.21511e-06
1.21516e-06
1.21306e-06
1.20985e-06
1.20985e-06
1.20985e-06
1.20985e-06
1.20985e-06
1.20985e-06
1.21357e-06
1.21478e-06
1.215e-06
1.21299e-06
1.20985e-06
1.20985e-06
1.20985e-06
1.20985e-06
1.20985e-06
1.20985e-06
1.21354e-06
1.21354e-06
1.21309e-06
1.20985e-06
1.20985e-06
1.20985e-06
1.20985e-06
1.20985e-06
1.20985e-06
1.2136e-06
1.21505e-06
1.2148e-06
1.21297e-06
1.20985e-06
1.20985e-06
1.20985e-06
1.20985e-06
1.21323e-06
1.21347e-06
1.21514e-06
1.21501e-06
1.21336e-06
1.21348e-06
1.21358e-06
1.21355e-06
1.2136e-06
1.21347e-06
1.21476e-06
1.21512e-06
1.21478e-06
1.21354e-06
1.21506e-06
1.21514e-06
1.1989e-06
1.19873e-06
1.19869e-06
1.19692e-06
1.1968e-06
1.19673e-06
1.19682e-06
1.19854e-06
1.19875e-06
1.19869e-06
1.19654e-06
1.19359e-06
1.19359e-06
1.19359e-06
1.19359e-06
1.19671e-06
1.1971e-06
1.19692e-06
1.19359e-06
1.19359e-06
1.19359e-06
1.19359e-06
1.19359e-06
1.19359e-06
1.19721e-06
1.19885e-06
1.1989e-06
1.1968e-06
1.19359e-06
1.19359e-06
1.19359e-06
1.19359e-06
1.19359e-06
1.19359e-06
1.19731e-06
1.19851e-06
1.19873e-06
1.19673e-06
1.19359e-06
1.19359e-06
1.19359e-06
1.19359e-06
1.19359e-06
1.19359e-06
1.19728e-06
1.19728e-06
1.19682e-06
1.19359e-06
1.19359e-06
1.19359e-06
1.19359e-06
1.19359e-06
1.19359e-06
1.19733e-06
1.19879e-06
1.19854e-06
1.19671e-06
1.19359e-06
1.19359e-06
1.19359e-06
1.19359e-06
1.19696e-06
1.1972e-06
1.19887e-06
1.19875e-06
1.1971e-06
1.19722e-06
1.19732e-06
1.19728e-06
1.19733e-06
1.1972e-06
1.19849e-06
1.19885e-06
1.19852e-06
1.19728e-06
1.1988e-06
1.19888e-06
1.18263e-06
1.18247e-06
1.18242e-06
1.18066e-06
1.18054e-06
1.18046e-06
1.18056e-06
1.18227e-06
1.18249e-06
1.18242e-06
1.18028e-06
1.17733e-06
1.17733e-06
1.17733e-06
1.17733e-06
1.18044e-06
1.18083e-06
1.18066e-06
1.17733e-06
1.17733e-06
1.17733e-06
1.17733e-06
1.17733e-06
1.17733e-06
1.18095e-06
1.18259e-06
1.18263e-06
1.18054e-06
1.17733e-06
1.17733e-06
1.17733e-06
1.17733e-06
1.17733e-06
1.17733e-06
1.18105e-06
1.18225e-06
1.18247e-06
1.18047e-06
1.17733e-06
1.17733e-06
1.17733e-06
1.17733e-06
1.17733e-06
1.17733e-06
1.18101e-06
1.18101e-06
1.18056e-06
1.17733e-06
1.17733e-06
1.17733e-06
1.17733e-06
1.17733e-06
1.17733e-06
1.18107e-06
1.18253e-06
1.18228e-06
1.18044e-06
1.17733e-06
1.17733e-06
1.17733e-06
1.17733e-06
1.1807e-06
1.18094e-06
1.18261e-06
1.18249e-06
1.18083e-06
1.18095e-06
1.18106e-06
1.18102e-06
1.18107e-06
1.18094e-06
1.18223e-06
1.18259e-06
1.18225e-06
1.18102e-06
1.18254e-06
1.18261e-06
1.16637e-06
1.1662e-06
1.16616e-06
1.1644e-06
1.16427e-06
1.1642e-06
1.16429e-06
1.16601e-06
1.16623e-06
1.16616e-06
1.16401e-06
1.16106e-06
1.16106e-06
1.16106e-06
1.16106e-06
1.16418e-06
1.16457e-06
1.1644e-06
1.16106e-06
1.16106e-06
1.16106e-06
1.16106e-06
1.16106e-06
1.16106e-06
1.16469e-06
1.16632e-06
1.16637e-06
1.16427e-06
1.16106e-06
1.16106e-06
1.16106e-06
1.16106e-06
1.16106e-06
1.16106e-06
1.16478e-06
1.16599e-06
1.16621e-06
1.1642e-06
1.16106e-06
1.16106e-06
1.16106e-06
1.16106e-06
1.16106e-06
1.16106e-06
1.16475e-06
1.16475e-06
1.1643e-06
1.16106e-06
1.16106e-06
1.16106e-06
1.16106e-06
1.16106e-06
1.16106e-06
1.16481e-06
1.16626e-06
1.16601e-06
1.16418e-06
1.16106e-06
1.16106e-06
1.16106e-06
1.16106e-06
1.16444e-06
1.16468e-06
1.16635e-06
1.16622e-06
1.16457e-06
1.16469e-06
1.16479e-06
1.16476e-06
1.16481e-06
1.16468e-06
1.16597e-06
1.16633e-06
1.16599e-06
1.16475e-06
1.16627e-06
1.16635e-06
1.15011e-06
1.14994e-06
1.1499e-06
1.14813e-06
1.14801e-06
1.14794e-06
1.14803e-06
1.14975e-06
1.14996e-06
1.1499e-06
1.14775e-06
1.1448e-06
1.1448e-06
1.1448e-06
1.1448e-06
1.14792e-06
1.14831e-06
1.14813e-06
1.1448e-06
1.1448e-06
1.1448e-06
1.1448e-06
1.1448e-06
1.1448e-06
1.14842e-06
1.15006e-06
1.15011e-06
1.14801e-06
1.1448e-06
1.1448e-06
1.1448e-06
1.1448e-06
1.1448e-06
1.1448e-06
1.14852e-06
1.14972e-06
1.14994e-06
1.14794e-06
1.1448e-06
1.1448e-06
1.1448e-06
1.1448e-06
1.1448e-06
1.1448e-06
1.14849e-06
1.14849e-06
1.14803e-06
1.1448e-06
1.1448e-06
1.1448e-06
1.1448e-06
1.1448e-06
1.1448e-06
1.14854e-06
1.15e-06
1.14975e-06
1.14792e-06
1.1448e-06
1.1448e-06
1.1448e-06
1.1448e-06
1.14817e-06
1.14841e-06
1.15008e-06
1.14996e-06
1.14831e-06
1.14843e-06
1.14853e-06
1.14849e-06
1.14854e-06
1.14841e-06
1.1497e-06
1.15006e-06
1.14973e-06
1.14849e-06
1.15001e-06
1.15009e-06
1.13384e-06
1.13368e-06
1.13363e-06
1.13187e-06
1.13175e-06
1.13167e-06
1.13177e-06
1.13349e-06
1.1337e-06
1.13363e-06
1.13149e-06
1.12854e-06
1.12854e-06
1.12854e-06
1.12854e-06
1.13165e-06
1.13204e-06
1.13187e-06
1.12854e-06
1.12854e-06
1.12854e-06
1.12854e-06
1.12854e-06
1.12854e-06
1.13216e-06
1.1338e-06
1.13384e-06
1.13175e-06
1.12854e-06
1.12854e-06
1.12854e-06
1.12854e-06
1.12854e-06
1.12854e-06
1.13226e-06
1.13346e-06
1.13368e-06
1.13168e-06
1.12854e-06
1.12854e-06
1.12854e-06
1.12854e-06
1.12854e-06
1.12854e-06
1.13222e-06
1.13222e-06
1.13177e-06
1.12854e-06
1.12854e-06
1.12854e-06
1.12854e-06
1.12854e-06
1.12854e-06
1.13228e-06
1.13374e-06
1.13349e-06
1.13165e-06
1.12854e-06
1.12854e-06
1.12854e-06
1.12854e-06
1.13191e-06
1.13215e-06
1.13382e-06
1.1337e-06
1.13204e-06
1.13216e-06
1.13226e-06
1.13223e-06
1.13228e-06
1.13215e-06
1.13344e-06
1.1338e-06
1.13346e-06
1.13223e-06
1.13375e-06
1.13382e-06
1.11758e-06
1.11741e-06
1.11737e-06
1.11561e-06
1.11548e-06
1.11541e-06
1.1155e-06
1.11722e-06
1.11743e-06
1.11737e-06
1.11522e-06
1.11227e-06
1.11227e-06
1.11227e-06
1.11227e-06
1.11539e-06
1.11578e-06
1.11561e-06
1.11227e-06
1.11227e-06
1.11227e-06
1.11227e-06
1.11227e-06
1.11227e-06
1.1159e-06
1.11753e-06
1.11758e-06
1.11548e-06
1.11227e-06
1.11227e-06
1.11227e-06
1.11227e-06
1.11227e-06
1.11227e-06
1.11599e-06
1.1172e-06
1.11742e-06
1.11541e-06
1.11227e-06
1.11227e-06
1.11227e-06
1.11227e-06
1.11227e-06
1.11227e-06
1.11596e-06
1.11596e-06
1.1155e-06
1.11227e-06
1.11227e-06
1.11227e-06
1.11227e-06
1.11227e-06
1.11227e-06
1.11602e-06
1.11747e-06
1.11722e-06
1.11539e-06
1.11227e-06
1.11227e-06
1.11227e-06
1.11227e-06
1.11565e-06
1.11589e-06
1.11756e-06
1.11743e-06
1.11578e-06
1.1159e-06
1.116e-06
1.11597e-06
1.11602e-06
1.11589e-06
1.11718e-06
1.11754e-06
1.1172e-06
1.11596e-06
1.11748e-06
1.11756e-06
1.10132e-06
1.10115e-06
1.10111e-06
1.09934e-06
1.09922e-06
1.09915e-06
1.09924e-06
1.10096e-06
1.10117e-06
1.10111e-06
1.09896e-06
1.09601e-06
1.09601e-06
1.09601e-06
1.09601e-06
1.09913e-06
1.09951e-06
1.09934e-06
1.09601e-06
1.09601e-06
1.09601e-06
1.09601e-06
1.09601e-06
1.09601e-06
1.09963e-06
1.10127e-06
1.10132e-06
1.09922e-06
1.09601e-06
1.09601e-06
1.09601e-06
1.09601e-06
1.09601e-06
1.09601e-06
1.09973e-06
1.10093e-06
1.10115e-06
1.09915e-06
1.09601e-06
1.09601e-06
1.09601e-06
1.09601e-06
1.09601e-06
1.09601e-06
1.0997e-06
1.0997e-06
1.09924e-06
1.09601e-06
1.09601e-06
1.09601e-06
1.09601e-06
1.09601e-06
1.09601e-06
1.09975e-06
1.10121e-06
1.10096e-06
1.09913e-06
1.09601e-06
1.09601e-06
1.09601e-06
1.09601e-06
1.09938e-06
1.09962e-06
1.10129e-06
1.10117e-06
1.09952e-06
1.09964e-06
1.09974e-06
1.0997e-06
1.09975e-06
1.09962e-06
1.10091e-06
1.10127e-06
1.10094e-06
1.0997e-06
1.10122e-06
1.1013e-06
1.08505e-06
1.08489e-06
1.08484e-06
1.08308e-06
1.08296e-06
1.08288e-06
1.08298e-06
1.0847e-06
1.08491e-06
1.08484e-06
1.0827e-06
1.07975e-06
1.07975e-06
1.07975e-06
1.07975e-06
1.08286e-06
1.08325e-06
1.08308e-06
1.07974e-06
1.07975e-06
1.07975e-06
1.07975e-06
1.07975e-06
1.07975e-06
1.08337e-06
1.08501e-06
1.08505e-06
1.08296e-06
1.07975e-06
1.07975e-06
1.07975e-06
1.07975e-06
1.07975e-06
1.07975e-06
1.08347e-06
1.08467e-06
1.08489e-06
1.08288e-06
1.07975e-06
1.07975e-06
1.07975e-06
1.07975e-06
1.07975e-06
1.07975e-06
1.08343e-06
1.08343e-06
1.08298e-06
1.07975e-06
1.07975e-06
1.07975e-06
1.07975e-06
1.07975e-06
1.07975e-06
1.08349e-06
1.08495e-06
1.0847e-06
1.08286e-06
1.07975e-06
1.07975e-06
1.07975e-06
1.07975e-06
1.08312e-06
1.08336e-06
1.08503e-06
1.08491e-06
1.08325e-06
1.08337e-06
1.08347e-06
1.08344e-06
1.08349e-06
1.08336e-06
1.08465e-06
1.08501e-06
1.08467e-06
1.08344e-06
1.08496e-06
1.08503e-06
1.06879e-06
1.06862e-06
1.06858e-06
1.06682e-06
1.06669e-06
1.06662e-06
1.06671e-06
1.06843e-06
1.06864e-06
1.06858e-06
1.06643e-06
1.06348e-06
1.06348e-06
1.06348e-06
1.06348e-06
1.0666e-06
1.06699e-06
1.06682e-06
1.06348e-06
1.06348e-06
1.06348e-06
1.06348e-06
1.06348e-06
1.06348e-06
1.06711e-06
1.06874e-06
1.06879e-06
1.06669e-06
1.06348e-06
1.06348e-06
1.06348e-06
1.06348e-06
1.06348e-06
1.06348e-06
1.0672e-06
1.06841e-06
1.06863e-06
1.06662e-06
1.06348e-06
1.06348e-06
1.06348e-06
1.06348e-06
1.06348e-06
1.06348e-06
1.06717e-06
1.06717e-06
1.06671e-06
1.06348e-06
1.06348e-06
1.06348e-06
1.06348e-06
1.06348e-06
1.06348e-06
1.06723e-06
1.06868e-06
1.06843e-06
1.0666e-06
1.06348e-06
1.06348e-06
1.06348e-06
1.06348e-06
1.06686e-06
1.0671e-06
1.06877e-06
1.06864e-06
1.06699e-06
1.06711e-06
1.06721e-06
1.06718e-06
1.06723e-06
1.0671e-06
1.06839e-06
1.06874e-06
1.06841e-06
1.06717e-06
1.06869e-06
1.06877e-06
1.05253e-06
1.05236e-06
1.05232e-06
1.05055e-06
1.05043e-06
1.05036e-06
1.05045e-06
1.05217e-06
1.05238e-06
1.05232e-06
1.05017e-06
1.04722e-06
1.04722e-06
1.04722e-06
1.04722e-06
1.05034e-06
1.05072e-06
1.05055e-06
1.04722e-06
1.04722e-06
1.04722e-06
1.04722e-06
1.04722e-06
1.04722e-06
1.05084e-06
1.05248e-06
1.05253e-06
1.05043e-06
1.04722e-06
1.04722e-06
1.04722e-06
1.04722e-06
1.04722e-06
1.04722e-06
1.05094e-06
1.05214e-06
1.05236e-06
1.05036e-06
1.04722e-06
1.04722e-06
1.04722e-06
1.04722e-06
1.04722e-06
1.04722e-06
1.05091e-06
1.05091e-06
1.05045e-06
1.04722e-06
1.04722e-06
1.04722e-06
1.04722e-06
1.04722e-06
1.04722e-06
1.05096e-06
1.05242e-06
1.05217e-06
1.05034e-06
1.04722e-06
1.04722e-06
1.04722e-06
1.04722e-06
1.05059e-06
1.05083e-06
1.0525e-06
1.05238e-06
1.05073e-06
1.05085e-06
1.05094e-06
1.05091e-06
1.05096e-06
1.05083e-06
1.05212e-06
1.05248e-06
1.05215e-06
1.05091e-06
1.05243e-06
1.05251e-06
1.03626e-06
1.0361e-06
1.03605e-06
1.03429e-06
1.03417e-06
1.03409e-06
1.03419e-06
1.03591e-06
1.03612e-06
1.03605e-06
1.03391e-06
1.03096e-06
1.03096e-06
1.03096e-06
1.03095e-06
1.03407e-06
1.03446e-06
1.03429e-06
1.03096e-06
1.03096e-06
1.03096e-06
1.03096e-06
1.03096e-06
1.03096e-06
1.03458e-06
1.03622e-06
1.03626e-06
1.03417e-06
1.03096e-06
1.03096e-06
1.03096e-06
1.03096e-06
1.03096e-06
1.03096e-06
1.03468e-06
1.03588e-06
1.0361e-06
1.03409e-06
1.03096e-06
1.03096e-06
1.03096e-06
1.03096e-06
1.03096e-06
1.03096e-06
1.03464e-06
1.03464e-06
1.03419e-06
1.03096e-06
1.03096e-06
1.03096e-06
1.03096e-06
1.03096e-06
1.03095e-06
1.0347e-06
1.03616e-06
1.03591e-06
1.03407e-06
1.03096e-06
1.03096e-06
1.03096e-06
1.03096e-06
1.03433e-06
1.03457e-06
1.03624e-06
1.03612e-06