/*--------------------------------*- C++ -*----------------------------------*\
| =========                 |                                                 |
| \\      /  F ield         | OpenFOAM: The Open Source CFD Toolbox           |
|  \\    /   O peration     | Version:  v2012                                 |
|   \\  /    A nd           | Website:  www.openfoam.com                      |
|    \\/     M anipulation  |                                                 |
\*---------------------------------------------------------------------------*/
FoamFile
{
    version     2.0;
    format      ascii;
    class       volScalarField;
    location    "6950.5";
    object      p;
}
// * * * * * * * * * * * * * * * * * * * * * * * * * * * * * * * * * * * * * //

dimensions      [0 2 -2 0 0 0 0];


internalField   nonuniform List<scalar> 
189320
(
1.47336e-07
1.47352e-07
1.47147e-07
1.47152e-07
1.47372e-07
1.47488e-07
1.47381e-07
1.47582e-07
1.4742e-07
1.47147e-07
1.47566e-07
1.47618e-07
1.47688e-07
1.47708e-07
1.47668e-07
1.47562e-07
1.47056e-07
1.47152e-07
1.47618e-07
1.4775e-07
1.47797e-07
1.47805e-07
1.47781e-07
1.47703e-07
1.4753e-07
1.47753e-07
1.47337e-07
1.47371e-07
1.47688e-07
1.47797e-07
1.47832e-07
1.47838e-07
1.47821e-07
1.47764e-07
1.47634e-07
1.47748e-07
1.47352e-07
1.47488e-07
1.47708e-07
1.47805e-07
1.47838e-07
1.47843e-07
1.47827e-07
1.47772e-07
1.47628e-07
1.47211e-07
1.47381e-07
1.47668e-07
1.47781e-07
1.47821e-07
1.47827e-07
1.47807e-07
1.47743e-07
1.47607e-07
1.47893e-07
1.47582e-07
1.47562e-07
1.47703e-07
1.47764e-07
1.47772e-07
1.47743e-07
1.47629e-07
1.47385e-07
1.47786e-07
1.47421e-07
1.47056e-07
1.4753e-07
1.47634e-07
1.47628e-07
1.47607e-07
1.47386e-07
1.48036e-07
1.47753e-07
1.47747e-07
1.47211e-07
1.47893e-07
1.47786e-07
1.44867e-07
1.44867e-07
1.44823e-07
1.44673e-07
1.44702e-07
1.44727e-07
1.44719e-07
1.44912e-07
1.44883e-07
1.44823e-07
1.44674e-07
1.44558e-07
1.44609e-07
1.44609e-07
1.44558e-07
1.44789e-07
1.44781e-07
1.44672e-07
1.44558e-07
1.4469e-07
1.44705e-07
1.44705e-07
1.4469e-07
1.44558e-07
1.44992e-07
1.44937e-07
1.44867e-07
1.44702e-07
1.44609e-07
1.44705e-07
1.44726e-07
1.44726e-07
1.44705e-07
1.44609e-07
1.45052e-07
1.44958e-07
1.44867e-07
1.44727e-07
1.44609e-07
1.44705e-07
1.44726e-07
1.44726e-07
1.44705e-07
1.44609e-07
1.45057e-07
1.44829e-07
1.44719e-07
1.44558e-07
1.4469e-07
1.44705e-07
1.44705e-07
1.4469e-07
1.44558e-07
1.45032e-07
1.45019e-07
1.44912e-07
1.44789e-07
1.44558e-07
1.44609e-07
1.44609e-07
1.44558e-07
1.45099e-07
1.44925e-07
1.44935e-07
1.44883e-07
1.44781e-07
1.44992e-07
1.45052e-07
1.45057e-07
1.45032e-07
1.44926e-07
1.45077e-07
1.44937e-07
1.44958e-07
1.44829e-07
1.45019e-07
1.44935e-07
1.43183e-07
1.4318e-07
1.43148e-07
1.4301e-07
1.43025e-07
1.43044e-07
1.43048e-07
1.43203e-07
1.43187e-07
1.43148e-07
1.43014e-07
1.42852e-07
1.42871e-07
1.42871e-07
1.42852e-07
1.43066e-07
1.43078e-07
1.4301e-07
1.42853e-07
1.42904e-07
1.42913e-07
1.42913e-07
1.42904e-07
1.42852e-07
1.43199e-07
1.43232e-07
1.43183e-07
1.43025e-07
1.42871e-07
1.42913e-07
1.42927e-07
1.42927e-07
1.42913e-07
1.42871e-07
1.43226e-07
1.43235e-07
1.4318e-07
1.43044e-07
1.42871e-07
1.42913e-07
1.42927e-07
1.42927e-07
1.42913e-07
1.42871e-07
1.4322e-07
1.4312e-07
1.43048e-07
1.42852e-07
1.42904e-07
1.42913e-07
1.42913e-07
1.42904e-07
1.42852e-07
1.43218e-07
1.43264e-07
1.43203e-07
1.43066e-07
1.42852e-07
1.42871e-07
1.42871e-07
1.42852e-07
1.43227e-07
1.43168e-07
1.43228e-07
1.43187e-07
1.43078e-07
1.43199e-07
1.43225e-07
1.4322e-07
1.43218e-07
1.43168e-07
1.43315e-07
1.43232e-07
1.43235e-07
1.4312e-07
1.43264e-07
1.43229e-07
1.4162e-07
1.41614e-07
1.41586e-07
1.41445e-07
1.41453e-07
1.41472e-07
1.41478e-07
1.41637e-07
1.41625e-07
1.41586e-07
1.41451e-07
1.41292e-07
1.41298e-07
1.41298e-07
1.41292e-07
1.415e-07
1.41514e-07
1.41445e-07
1.41292e-07
1.41308e-07
1.41314e-07
1.41314e-07
1.41308e-07
1.41292e-07
1.41626e-07
1.41672e-07
1.4162e-07
1.41453e-07
1.41298e-07
1.41314e-07
1.41322e-07
1.41322e-07
1.41314e-07
1.41298e-07
1.41645e-07
1.41671e-07
1.41614e-07
1.41472e-07
1.41298e-07
1.41314e-07
1.41322e-07
1.41322e-07
1.41314e-07
1.41298e-07
1.41634e-07
1.41551e-07
1.41478e-07
1.41292e-07
1.41308e-07
1.41314e-07
1.41314e-07
1.41308e-07
1.41292e-07
1.41634e-07
1.41698e-07
1.41637e-07
1.415e-07
1.41292e-07
1.41298e-07
1.41298e-07
1.41292e-07
1.41644e-07
1.41592e-07
1.41666e-07
1.41625e-07
1.41514e-07
1.41626e-07
1.41645e-07
1.41634e-07
1.41634e-07
1.41593e-07
1.41747e-07
1.41672e-07
1.41671e-07
1.41551e-07
1.41698e-07
1.41666e-07
1.40073e-07
1.40066e-07
1.40039e-07
1.39895e-07
1.39903e-07
1.39921e-07
1.39929e-07
1.4009e-07
1.40079e-07
1.40039e-07
1.39902e-07
1.39738e-07
1.39741e-07
1.39741e-07
1.39738e-07
1.3995e-07
1.39967e-07
1.39895e-07
1.39738e-07
1.39746e-07
1.39748e-07
1.39748e-07
1.39746e-07
1.39738e-07
1.40077e-07
1.40126e-07
1.40073e-07
1.39903e-07
1.39741e-07
1.39748e-07
1.39751e-07
1.39751e-07
1.39748e-07
1.39741e-07
1.40092e-07
1.40124e-07
1.40066e-07
1.39921e-07
1.39741e-07
1.39748e-07
1.39752e-07
1.39752e-07
1.39748e-07
1.39741e-07
1.4008e-07
1.40002e-07
1.39929e-07
1.39738e-07
1.39746e-07
1.39748e-07
1.39748e-07
1.39746e-07
1.39738e-07
1.40081e-07
1.40151e-07
1.4009e-07
1.3995e-07
1.39738e-07
1.39741e-07
1.39741e-07
1.39738e-07
1.40089e-07
1.40043e-07
1.40119e-07
1.40079e-07
1.39966e-07
1.40077e-07
1.40092e-07
1.4008e-07
1.40081e-07
1.40043e-07
1.40199e-07
1.40126e-07
1.40124e-07
1.40002e-07
1.40151e-07
1.40119e-07
1.38526e-07
1.38519e-07
1.38493e-07
1.38347e-07
1.38354e-07
1.38372e-07
1.3838e-07
1.38543e-07
1.38532e-07
1.38493e-07
1.38353e-07
1.38187e-07
1.38189e-07
1.38189e-07
1.38188e-07
1.38402e-07
1.38419e-07
1.38347e-07
1.38188e-07
1.38193e-07
1.38193e-07
1.38193e-07
1.38193e-07
1.38188e-07
1.38529e-07
1.3858e-07
1.38526e-07
1.38354e-07
1.38189e-07
1.38193e-07
1.38194e-07
1.38194e-07
1.38193e-07
1.38189e-07
1.38544e-07
1.38578e-07
1.38519e-07
1.38372e-07
1.38189e-07
1.38193e-07
1.38194e-07
1.38194e-07
1.38193e-07
1.38189e-07
1.38532e-07
1.38455e-07
1.3838e-07
1.38188e-07
1.38193e-07
1.38193e-07
1.38193e-07
1.38193e-07
1.38187e-07
1.38533e-07
1.38605e-07
1.38543e-07
1.38402e-07
1.38187e-07
1.38189e-07
1.38189e-07
1.38188e-07
1.3854e-07
1.38495e-07
1.38573e-07
1.38532e-07
1.38419e-07
1.38529e-07
1.38544e-07
1.38532e-07
1.38533e-07
1.38495e-07
1.38653e-07
1.3858e-07
1.38578e-07
1.38455e-07
1.38605e-07
1.38573e-07
1.36978e-07
1.36971e-07
1.36945e-07
1.36799e-07
1.36805e-07
1.36823e-07
1.36832e-07
1.36995e-07
1.36985e-07
1.36945e-07
1.36805e-07
1.36638e-07
1.36639e-07
1.36639e-07
1.36638e-07
1.36854e-07
1.36871e-07
1.36799e-07
1.36638e-07
1.36642e-07
1.36642e-07
1.36642e-07
1.36642e-07
1.36638e-07
1.36981e-07
1.37032e-07
1.36978e-07
1.36805e-07
1.36639e-07
1.36642e-07
1.36642e-07
1.36642e-07
1.36642e-07
1.36639e-07
1.36996e-07
1.3703e-07
1.36971e-07
1.36823e-07
1.36639e-07
1.36642e-07
1.36642e-07
1.36642e-07
1.36642e-07
1.36639e-07
1.36983e-07
1.36906e-07
1.36832e-07
1.36638e-07
1.36643e-07
1.36642e-07
1.36642e-07
1.36642e-07
1.36638e-07
1.36985e-07
1.37057e-07
1.36995e-07
1.36854e-07
1.36638e-07
1.36639e-07
1.36639e-07
1.36638e-07
1.36992e-07
1.36947e-07
1.37025e-07
1.36985e-07
1.36871e-07
1.36981e-07
1.36996e-07
1.36983e-07
1.36985e-07
1.36947e-07
1.37105e-07
1.37032e-07
1.3703e-07
1.36906e-07
1.37057e-07
1.37025e-07
1.3543e-07
1.35423e-07
1.35396e-07
1.3525e-07
1.35257e-07
1.35275e-07
1.35283e-07
1.35446e-07
1.35436e-07
1.35396e-07
1.35256e-07
1.35089e-07
1.3509e-07
1.3509e-07
1.35089e-07
1.35305e-07
1.35323e-07
1.3525e-07
1.35089e-07
1.35093e-07
1.35092e-07
1.35092e-07
1.35093e-07
1.35089e-07
1.35433e-07
1.35484e-07
1.3543e-07
1.35257e-07
1.3509e-07
1.35092e-07
1.35092e-07
1.35092e-07
1.35092e-07
1.3509e-07
1.35447e-07
1.35482e-07
1.35423e-07
1.35275e-07
1.3509e-07
1.35092e-07
1.35092e-07
1.35092e-07
1.35092e-07
1.3509e-07
1.35435e-07
1.35358e-07
1.35283e-07
1.35089e-07
1.35093e-07
1.35092e-07
1.35092e-07
1.35093e-07
1.35089e-07
1.35436e-07
1.35509e-07
1.35446e-07
1.35305e-07
1.35089e-07
1.3509e-07
1.3509e-07
1.35089e-07
1.35443e-07
1.35399e-07
1.35477e-07
1.35436e-07
1.35323e-07
1.35433e-07
1.35447e-07
1.35435e-07
1.35436e-07
1.35399e-07
1.35557e-07
1.35484e-07
1.35482e-07
1.35358e-07
1.35509e-07
1.35477e-07
1.33881e-07
1.33874e-07
1.33848e-07
1.33702e-07
1.33708e-07
1.33726e-07
1.33735e-07
1.33898e-07
1.33888e-07
1.33848e-07
1.33707e-07
1.3354e-07
1.33541e-07
1.33541e-07
1.3354e-07
1.33757e-07
1.33774e-07
1.33702e-07
1.3354e-07
1.33544e-07
1.33543e-07
1.33543e-07
1.33544e-07
1.3354e-07
1.33884e-07
1.33935e-07
1.33881e-07
1.33708e-07
1.33541e-07
1.33543e-07
1.33542e-07
1.33542e-07
1.33543e-07
1.33541e-07
1.33899e-07
1.33933e-07
1.33874e-07
1.33726e-07
1.33541e-07
1.33543e-07
1.33542e-07
1.33542e-07
1.33543e-07
1.33541e-07
1.33886e-07
1.33809e-07
1.33735e-07
1.3354e-07
1.33544e-07
1.33543e-07
1.33543e-07
1.33544e-07
1.3354e-07
1.33887e-07
1.3396e-07
1.33898e-07
1.33757e-07
1.3354e-07
1.33541e-07
1.33541e-07
1.3354e-07
1.33895e-07
1.3385e-07
1.33928e-07
1.33888e-07
1.33774e-07
1.33884e-07
1.33899e-07
1.33886e-07
1.33887e-07
1.3385e-07
1.34008e-07
1.33935e-07
1.33933e-07
1.33809e-07
1.3396e-07
1.33928e-07
1.32332e-07
1.32326e-07
1.32299e-07
1.32153e-07
1.32159e-07
1.32177e-07
1.32186e-07
1.32349e-07
1.32339e-07
1.32299e-07
1.32158e-07
1.31991e-07
1.31992e-07
1.31992e-07
1.31991e-07
1.32208e-07
1.32226e-07
1.32153e-07
1.31991e-07
1.31995e-07
1.31994e-07
1.31994e-07
1.31995e-07
1.31991e-07
1.32335e-07
1.32386e-07
1.32332e-07
1.32159e-07
1.31992e-07
1.31994e-07
1.31993e-07
1.31993e-07
1.31994e-07
1.31992e-07
1.3235e-07
1.32384e-07
1.32326e-07
1.32177e-07
1.31992e-07
1.31994e-07
1.31993e-07
1.31993e-07
1.31994e-07
1.31992e-07
1.32337e-07
1.32261e-07
1.32186e-07
1.31991e-07
1.31995e-07
1.31994e-07
1.31994e-07
1.31995e-07
1.31991e-07
1.32339e-07
1.32411e-07
1.32349e-07
1.32208e-07
1.31991e-07
1.31992e-07
1.31992e-07
1.31991e-07
1.32346e-07
1.32301e-07
1.3238e-07
1.32339e-07
1.32226e-07
1.32335e-07
1.3235e-07
1.32337e-07
1.32339e-07
1.32302e-07
1.3246e-07
1.32386e-07
1.32384e-07
1.32261e-07
1.32411e-07
1.3238e-07
1.30784e-07
1.30777e-07
1.3075e-07
1.30604e-07
1.30611e-07
1.30629e-07
1.30637e-07
1.308e-07
1.3079e-07
1.3075e-07
1.3061e-07
1.30443e-07
1.30443e-07
1.30443e-07
1.30443e-07
1.30659e-07
1.30677e-07
1.30604e-07
1.30443e-07
1.30446e-07
1.30445e-07
1.30445e-07
1.30446e-07
1.30443e-07
1.30786e-07
1.30838e-07
1.30784e-07
1.30611e-07
1.30443e-07
1.30445e-07
1.30444e-07
1.30444e-07
1.30445e-07
1.30443e-07
1.30801e-07
1.30836e-07
1.30777e-07
1.30629e-07
1.30443e-07
1.30445e-07
1.30444e-07
1.30444e-07
1.30445e-07
1.30443e-07
1.30788e-07
1.30712e-07
1.30637e-07
1.30443e-07
1.30446e-07
1.30445e-07
1.30445e-07
1.30446e-07
1.30443e-07
1.3079e-07
1.30863e-07
1.308e-07
1.30659e-07
1.30443e-07
1.30443e-07
1.30443e-07
1.30443e-07
1.30797e-07
1.30753e-07
1.30831e-07
1.3079e-07
1.30677e-07
1.30786e-07
1.30801e-07
1.30788e-07
1.3079e-07
1.30753e-07
1.30911e-07
1.30838e-07
1.30836e-07
1.30712e-07
1.30863e-07
1.30831e-07
1.29235e-07
1.29228e-07
1.29202e-07
1.29056e-07
1.29062e-07
1.2908e-07
1.29089e-07
1.29252e-07
1.29242e-07
1.29202e-07
1.29061e-07
1.28894e-07
1.28895e-07
1.28895e-07
1.28894e-07
1.2911e-07
1.29128e-07
1.29056e-07
1.28894e-07
1.28897e-07
1.28896e-07
1.28896e-07
1.28897e-07
1.28894e-07
1.29238e-07
1.29289e-07
1.29235e-07
1.29062e-07
1.28895e-07
1.28896e-07
1.28895e-07
1.28895e-07
1.28896e-07
1.28895e-07
1.29253e-07
1.29287e-07
1.29228e-07
1.2908e-07
1.28895e-07
1.28896e-07
1.28895e-07
1.28895e-07
1.28896e-07
1.28895e-07
1.2924e-07
1.29163e-07
1.29089e-07
1.28894e-07
1.28897e-07
1.28896e-07
1.28896e-07
1.28897e-07
1.28894e-07
1.29241e-07
1.29314e-07
1.29252e-07
1.2911e-07
1.28894e-07
1.28895e-07
1.28895e-07
1.28894e-07
1.29249e-07
1.29204e-07
1.29282e-07
1.29242e-07
1.29128e-07
1.29238e-07
1.29253e-07
1.2924e-07
1.29241e-07
1.29204e-07
1.29362e-07
1.29289e-07
1.29287e-07
1.29163e-07
1.29314e-07
1.29282e-07
1.27686e-07
1.2768e-07
1.27653e-07
1.27507e-07
1.27513e-07
1.27531e-07
1.2754e-07
1.27703e-07
1.27693e-07
1.27653e-07
1.27512e-07
1.27345e-07
1.27346e-07
1.27346e-07
1.27345e-07
1.27562e-07
1.2758e-07
1.27507e-07
1.27345e-07
1.27349e-07
1.27347e-07
1.27347e-07
1.27349e-07
1.27345e-07
1.27689e-07
1.2774e-07
1.27686e-07
1.27513e-07
1.27346e-07
1.27347e-07
1.27347e-07
1.27347e-07
1.27347e-07
1.27346e-07
1.27704e-07
1.27738e-07
1.2768e-07
1.27531e-07
1.27346e-07
1.27347e-07
1.27347e-07
1.27347e-07
1.27347e-07
1.27346e-07
1.27691e-07
1.27614e-07
1.2754e-07
1.27345e-07
1.27349e-07
1.27347e-07
1.27347e-07
1.27349e-07
1.27345e-07
1.27693e-07
1.27765e-07
1.27703e-07
1.27562e-07
1.27345e-07
1.27346e-07
1.27346e-07
1.27345e-07
1.277e-07
1.27655e-07
1.27733e-07
1.27693e-07
1.2758e-07
1.27689e-07
1.27704e-07
1.27691e-07
1.27693e-07
1.27655e-07
1.27813e-07
1.2774e-07
1.27738e-07
1.27614e-07
1.27765e-07
1.27733e-07
1.26137e-07
1.26131e-07
1.26104e-07
1.25958e-07
1.25964e-07
1.25982e-07
1.25991e-07
1.26154e-07
1.26144e-07
1.26104e-07
1.25964e-07
1.25797e-07
1.25797e-07
1.25797e-07
1.25797e-07
1.26013e-07
1.26031e-07
1.25958e-07
1.25797e-07
1.258e-07
1.25798e-07
1.25798e-07
1.258e-07
1.25797e-07
1.2614e-07
1.26192e-07
1.26137e-07
1.25964e-07
1.25797e-07
1.25798e-07
1.25798e-07
1.25798e-07
1.25798e-07
1.25797e-07
1.26155e-07
1.26189e-07
1.26131e-07
1.25982e-07
1.25797e-07
1.25798e-07
1.25798e-07
1.25798e-07
1.25798e-07
1.25797e-07
1.26142e-07
1.26066e-07
1.25991e-07
1.25797e-07
1.258e-07
1.25798e-07
1.25798e-07
1.258e-07
1.25797e-07
1.26144e-07
1.26216e-07
1.26154e-07
1.26013e-07
1.25797e-07
1.25797e-07
1.25797e-07
1.25797e-07
1.26151e-07
1.26107e-07
1.26185e-07
1.26144e-07
1.26031e-07
1.2614e-07
1.26155e-07
1.26142e-07
1.26144e-07
1.26107e-07
1.26265e-07
1.26192e-07
1.26189e-07
1.26066e-07
1.26216e-07
1.26185e-07
1.24589e-07
1.24582e-07
1.24555e-07
1.24409e-07
1.24416e-07
1.24434e-07
1.24442e-07
1.24606e-07
1.24595e-07
1.24555e-07
1.24415e-07
1.24248e-07
1.24248e-07
1.24248e-07
1.24248e-07
1.24464e-07
1.24482e-07
1.24409e-07
1.24248e-07
1.24251e-07
1.2425e-07
1.2425e-07
1.24251e-07
1.24248e-07
1.24592e-07
1.24643e-07
1.24589e-07
1.24416e-07
1.24248e-07
1.2425e-07
1.24249e-07
1.24249e-07
1.2425e-07
1.24248e-07
1.24606e-07
1.24641e-07
1.24582e-07
1.24434e-07
1.24248e-07
1.2425e-07
1.24249e-07
1.24249e-07
1.2425e-07
1.24248e-07
1.24593e-07
1.24517e-07
1.24442e-07
1.24248e-07
1.24251e-07
1.2425e-07
1.2425e-07
1.24251e-07
1.24248e-07
1.24595e-07
1.24668e-07
1.24606e-07
1.24464e-07
1.24248e-07
1.24248e-07
1.24248e-07
1.24248e-07
1.24602e-07
1.24558e-07
1.24636e-07
1.24595e-07
1.24482e-07
1.24592e-07
1.24606e-07
1.24594e-07
1.24595e-07
1.24558e-07
1.24716e-07
1.24643e-07
1.24641e-07
1.24517e-07
1.24668e-07
1.24636e-07
1.2304e-07
1.23033e-07
1.23007e-07
1.22861e-07
1.22867e-07
1.22885e-07
1.22894e-07
1.23057e-07
1.23047e-07
1.23007e-07
1.22866e-07
1.22699e-07
1.227e-07
1.227e-07
1.22699e-07
1.22916e-07
1.22933e-07
1.22861e-07
1.22699e-07
1.22702e-07
1.22701e-07
1.22701e-07
1.22702e-07
1.22699e-07
1.23043e-07
1.23094e-07
1.2304e-07
1.22867e-07
1.227e-07
1.22701e-07
1.227e-07
1.227e-07
1.22701e-07
1.227e-07
1.23058e-07
1.23092e-07
1.23033e-07
1.22885e-07
1.227e-07
1.22701e-07
1.227e-07
1.227e-07
1.22701e-07
1.227e-07
1.23045e-07
1.22968e-07
1.22894e-07
1.22699e-07
1.22702e-07
1.22701e-07
1.22701e-07
1.22702e-07
1.22699e-07
1.23046e-07
1.23119e-07
1.23057e-07
1.22916e-07
1.22699e-07
1.227e-07
1.227e-07
1.22699e-07
1.23054e-07
1.23009e-07
1.23087e-07
1.23047e-07
1.22933e-07
1.23043e-07
1.23058e-07
1.23045e-07
1.23046e-07
1.23009e-07
1.23167e-07
1.23094e-07
1.23092e-07
1.22968e-07
1.23119e-07
1.23087e-07
1.21491e-07
1.21484e-07
1.21458e-07
1.21312e-07
1.21318e-07
1.21336e-07
1.21345e-07
1.21508e-07
1.21498e-07
1.21458e-07
1.21317e-07
1.2115e-07
1.21151e-07
1.21151e-07
1.2115e-07
1.21367e-07
1.21385e-07
1.21312e-07
1.2115e-07
1.21154e-07
1.21152e-07
1.21152e-07
1.21154e-07
1.2115e-07
1.21494e-07
1.21545e-07
1.21491e-07
1.21318e-07
1.21151e-07
1.21152e-07
1.21151e-07
1.21151e-07
1.21152e-07
1.21151e-07
1.21509e-07
1.21543e-07
1.21484e-07
1.21336e-07
1.21151e-07
1.21152e-07
1.21151e-07
1.21151e-07
1.21152e-07
1.21151e-07
1.21496e-07
1.21419e-07
1.21345e-07
1.2115e-07
1.21154e-07
1.21152e-07
1.21152e-07
1.21154e-07
1.2115e-07
1.21497e-07
1.2157e-07
1.21508e-07
1.21367e-07
1.2115e-07
1.21151e-07
1.21151e-07
1.2115e-07
1.21505e-07
1.2146e-07
1.21538e-07
1.21498e-07
1.21385e-07
1.21494e-07
1.21509e-07
1.21496e-07
1.21498e-07
1.2146e-07
1.21618e-07
1.21545e-07
1.21543e-07
1.21419e-07
1.2157e-07
1.21538e-07
1.19942e-07
1.19936e-07
1.19909e-07
1.19763e-07
1.19769e-07
1.19787e-07
1.19796e-07
1.19959e-07
1.19949e-07
1.19909e-07
1.19768e-07
1.19601e-07
1.19602e-07
1.19602e-07
1.19601e-07
1.19818e-07
1.19836e-07
1.19763e-07
1.19601e-07
1.19605e-07
1.19603e-07
1.19603e-07
1.19605e-07
1.19601e-07
1.19945e-07
1.19996e-07
1.19942e-07
1.19769e-07
1.19602e-07
1.19603e-07
1.19603e-07
1.19603e-07
1.19603e-07
1.19602e-07
1.1996e-07
1.19994e-07
1.19936e-07
1.19787e-07
1.19602e-07
1.19603e-07
1.19603e-07
1.19603e-07
1.19603e-07
1.19602e-07
1.19947e-07
1.19871e-07
1.19796e-07
1.19601e-07
1.19605e-07
1.19603e-07
1.19603e-07
1.19605e-07
1.19601e-07
1.19949e-07
1.20021e-07
1.19959e-07
1.19818e-07
1.19601e-07
1.19602e-07
1.19602e-07
1.19601e-07
1.19956e-07
1.19911e-07
1.1999e-07
1.19949e-07
1.19836e-07
1.19945e-07
1.1996e-07
1.19947e-07
1.19949e-07
1.19911e-07
1.2007e-07
1.19996e-07
1.19994e-07
1.19871e-07
1.20021e-07
1.1999e-07
1.18393e-07
1.18387e-07
1.1836e-07
1.18214e-07
1.1822e-07
1.18238e-07
1.18247e-07
1.1841e-07
1.184e-07
1.1836e-07
1.1822e-07
1.18052e-07
1.18053e-07
1.18053e-07
1.18052e-07
1.18269e-07
1.18287e-07
1.18214e-07
1.18052e-07
1.18056e-07
1.18054e-07
1.18054e-07
1.18056e-07
1.18052e-07
1.18396e-07
1.18448e-07
1.18393e-07
1.1822e-07
1.18053e-07
1.18054e-07
1.18054e-07
1.18054e-07
1.18054e-07
1.18053e-07
1.18411e-07
1.18445e-07
1.18387e-07
1.18238e-07
1.18053e-07
1.18054e-07
1.18054e-07
1.18054e-07
1.18054e-07
1.18053e-07
1.18398e-07
1.18322e-07
1.18247e-07
1.18052e-07
1.18056e-07
1.18054e-07
1.18054e-07
1.18056e-07
1.18052e-07
1.184e-07
1.18472e-07
1.1841e-07
1.18269e-07
1.18052e-07
1.18053e-07
1.18053e-07
1.18052e-07
1.18407e-07
1.18363e-07
1.18441e-07
1.184e-07
1.18287e-07
1.18396e-07
1.18411e-07
1.18398e-07
1.184e-07
1.18363e-07
1.18521e-07
1.18448e-07
1.18445e-07
1.18322e-07
1.18472e-07
1.18441e-07
1.16845e-07
1.16838e-07
1.16811e-07
1.16665e-07
1.16671e-07
1.1669e-07
1.16698e-07
1.16861e-07
1.16851e-07
1.16811e-07
1.16671e-07
1.16504e-07
1.16504e-07
1.16504e-07
1.16504e-07
1.1672e-07
1.16738e-07
1.16665e-07
1.16504e-07
1.16507e-07
1.16506e-07
1.16506e-07
1.16507e-07
1.16504e-07
1.16847e-07
1.16899e-07
1.16845e-07
1.16671e-07
1.16504e-07
1.16506e-07
1.16505e-07
1.16505e-07
1.16506e-07
1.16504e-07
1.16862e-07
1.16897e-07
1.16838e-07
1.1669e-07
1.16504e-07
1.16506e-07
1.16505e-07
1.16505e-07
1.16506e-07
1.16504e-07
1.16849e-07
1.16773e-07
1.16698e-07
1.16504e-07
1.16507e-07
1.16506e-07
1.16506e-07
1.16507e-07
1.16504e-07
1.16851e-07
1.16924e-07
1.16861e-07
1.1672e-07
1.16504e-07
1.16504e-07
1.16504e-07
1.16504e-07
1.16858e-07
1.16814e-07
1.16892e-07
1.16851e-07
1.16738e-07
1.16847e-07
1.16862e-07
1.16849e-07
1.16851e-07
1.16814e-07
1.16972e-07
1.16899e-07
1.16897e-07
1.16773e-07
1.16924e-07
1.16892e-07
1.15296e-07
1.15289e-07
1.15262e-07
1.15116e-07
1.15123e-07
1.15141e-07
1.15149e-07
1.15313e-07
1.15302e-07
1.15263e-07
1.15122e-07
1.14955e-07
1.14956e-07
1.14956e-07
1.14955e-07
1.15171e-07
1.15189e-07
1.15116e-07
1.14955e-07
1.14958e-07
1.14957e-07
1.14957e-07
1.14958e-07
1.14955e-07
1.15299e-07
1.1535e-07
1.15296e-07
1.15123e-07
1.14956e-07
1.14957e-07
1.14956e-07
1.14956e-07
1.14957e-07
1.14956e-07
1.15313e-07
1.15348e-07
1.15289e-07
1.15141e-07
1.14956e-07
1.14957e-07
1.14956e-07
1.14956e-07
1.14957e-07
1.14956e-07
1.15301e-07
1.15224e-07
1.15149e-07
1.14955e-07
1.14958e-07
1.14957e-07
1.14957e-07
1.14958e-07
1.14955e-07
1.15302e-07
1.15375e-07
1.15313e-07
1.15171e-07
1.14955e-07
1.14956e-07
1.14956e-07
1.14955e-07
1.1531e-07
1.15265e-07
1.15343e-07
1.15302e-07
1.15189e-07
1.15299e-07
1.15313e-07
1.15301e-07
1.15302e-07
1.15265e-07
1.15423e-07
1.1535e-07
1.15348e-07
1.15224e-07
1.15375e-07
1.15343e-07
1.13747e-07
1.1374e-07
1.13714e-07
1.13568e-07
1.13574e-07
1.13592e-07
1.13601e-07
1.13764e-07
1.13754e-07
1.13714e-07
1.13573e-07
1.13406e-07
1.13407e-07
1.13407e-07
1.13406e-07
1.13623e-07
1.13641e-07
1.13568e-07
1.13406e-07
1.1341e-07
1.13408e-07
1.13408e-07
1.1341e-07
1.13406e-07
1.1375e-07
1.13801e-07
1.13747e-07
1.13574e-07
1.13407e-07
1.13408e-07
1.13408e-07
1.13408e-07
1.13408e-07
1.13407e-07
1.13765e-07
1.13799e-07
1.1374e-07
1.13592e-07
1.13407e-07
1.13408e-07
1.13408e-07
1.13408e-07
1.13408e-07
1.13407e-07
1.13752e-07
1.13675e-07
1.13601e-07
1.13406e-07
1.1341e-07
1.13408e-07
1.13408e-07
1.1341e-07
1.13406e-07
1.13754e-07
1.13826e-07
1.13764e-07
1.13623e-07
1.13406e-07
1.13407e-07
1.13407e-07
1.13406e-07
1.13761e-07
1.13716e-07
1.13794e-07
1.13754e-07
1.13641e-07
1.1375e-07
1.13765e-07
1.13752e-07
1.13754e-07
1.13716e-07
1.13874e-07
1.13801e-07
1.13799e-07
1.13675e-07
1.13826e-07
1.13794e-07
1.12198e-07
1.12192e-07
1.12165e-07
1.12019e-07
1.12025e-07
1.12043e-07
1.12052e-07
1.12215e-07
1.12205e-07
1.12165e-07
1.12025e-07
1.11858e-07
1.11858e-07
1.11858e-07
1.11858e-07
1.12074e-07
1.12092e-07
1.12019e-07
1.11858e-07
1.11861e-07
1.1186e-07
1.1186e-07
1.11861e-07
1.11858e-07
1.12201e-07
1.12253e-07
1.12198e-07
1.12025e-07
1.11858e-07
1.1186e-07
1.11859e-07
1.11859e-07
1.1186e-07
1.11858e-07
1.12216e-07
1.12251e-07
1.12192e-07
1.12043e-07
1.11858e-07
1.1186e-07
1.11859e-07
1.11859e-07
1.1186e-07
1.11858e-07
1.12203e-07
1.12127e-07
1.12052e-07
1.11858e-07
1.11861e-07
1.1186e-07
1.1186e-07
1.11861e-07
1.11858e-07
1.12205e-07
1.12277e-07
1.12215e-07
1.12074e-07
1.11858e-07
1.11858e-07
1.11858e-07
1.11858e-07
1.12212e-07
1.12168e-07
1.12246e-07
1.12205e-07
1.12092e-07
1.12201e-07
1.12216e-07
1.12203e-07
1.12205e-07
1.12168e-07
1.12326e-07
1.12253e-07
1.12251e-07
1.12127e-07
1.12277e-07
1.12246e-07
1.1065e-07
1.10643e-07
1.10616e-07
1.1047e-07
1.10477e-07
1.10495e-07
1.10504e-07
1.10667e-07
1.10656e-07
1.10617e-07
1.10476e-07
1.10309e-07
1.1031e-07
1.1031e-07
1.10309e-07
1.10525e-07
1.10543e-07
1.1047e-07
1.10309e-07
1.10312e-07
1.10311e-07
1.10311e-07
1.10312e-07
1.10309e-07
1.10653e-07
1.10704e-07
1.1065e-07
1.10477e-07
1.1031e-07
1.10311e-07
1.1031e-07
1.1031e-07
1.10311e-07
1.1031e-07
1.10667e-07
1.10702e-07
1.10643e-07
1.10495e-07
1.1031e-07
1.10311e-07
1.1031e-07
1.1031e-07
1.10311e-07
1.1031e-07
1.10655e-07
1.10578e-07
1.10504e-07
1.10309e-07
1.10312e-07
1.10311e-07
1.10311e-07
1.10312e-07
1.10309e-07
1.10656e-07
1.10729e-07
1.10667e-07
1.10525e-07
1.10309e-07
1.1031e-07
1.1031e-07
1.10309e-07
1.10664e-07
1.10619e-07
1.10697e-07
1.10656e-07
1.10543e-07
1.10653e-07
1.10667e-07
1.10655e-07
1.10656e-07
1.10619e-07
1.10777e-07
1.10704e-07
1.10702e-07
1.10578e-07
1.10729e-07
1.10697e-07
1.09101e-07
1.09095e-07
1.09068e-07
1.08922e-07
1.08928e-07
1.08946e-07
1.08955e-07
1.09118e-07
1.09108e-07
1.09068e-07
1.08927e-07
1.0876e-07
1.08761e-07
1.08761e-07
1.0876e-07
1.08977e-07
1.08995e-07
1.08922e-07
1.0876e-07
1.08764e-07
1.08762e-07
1.08762e-07
1.08764e-07
1.0876e-07
1.09104e-07
1.09155e-07
1.09101e-07
1.08928e-07
1.08761e-07
1.08762e-07
1.08762e-07
1.08762e-07
1.08762e-07
1.08761e-07
1.09119e-07
1.09153e-07
1.09095e-07
1.08946e-07
1.08761e-07
1.08762e-07
1.08762e-07
1.08762e-07
1.08762e-07
1.08761e-07
1.09106e-07
1.09029e-07
1.08955e-07
1.0876e-07
1.08764e-07
1.08762e-07
1.08762e-07
1.08764e-07
1.0876e-07
1.09108e-07
1.0918e-07
1.09118e-07
1.08977e-07
1.0876e-07
1.08761e-07
1.08761e-07
1.0876e-07
1.09115e-07
1.0907e-07
1.09148e-07
1.09108e-07
1.08995e-07
1.09104e-07
1.09119e-07
1.09106e-07
1.09108e-07
1.0907e-07
1.09228e-07
1.09155e-07
1.09153e-07
1.09029e-07
1.0918e-07
1.09148e-07
1.07552e-07
1.07546e-07
1.07519e-07
1.07373e-07
1.07379e-07
1.07397e-07
1.07406e-07
1.07569e-07
1.07559e-07
1.07519e-07
1.07379e-07
1.07211e-07
1.07212e-07
1.07212e-07
1.07211e-07
1.07428e-07
1.07446e-07
1.07373e-07
1.07211e-07
1.07215e-07
1.07213e-07
1.07213e-07
1.07215e-07
1.07211e-07
1.07555e-07
1.07607e-07
1.07552e-07
1.07379e-07
1.07212e-07
1.07213e-07
1.07213e-07
1.07213e-07
1.07213e-07
1.07212e-07
1.0757e-07
1.07604e-07
1.07546e-07
1.07397e-07
1.07212e-07
1.07213e-07
1.07213e-07
1.07213e-07
1.07213e-07
1.07212e-07
1.07557e-07
1.07481e-07
1.07406e-07
1.07211e-07
1.07215e-07
1.07213e-07
1.07213e-07
1.07215e-07
1.07211e-07
1.07559e-07
1.07631e-07
1.07569e-07
1.07428e-07
1.07211e-07
1.07212e-07
1.07212e-07
1.07211e-07
1.07566e-07
1.07522e-07
1.076e-07
1.07559e-07
1.07446e-07
1.07555e-07
1.0757e-07
1.07557e-07
1.07559e-07
1.07522e-07
1.0768e-07
1.07606e-07
1.07604e-07
1.07481e-07
1.07631e-07
1.076e-07
1.06003e-07
1.05997e-07
1.0597e-07
1.05824e-07
1.0583e-07
1.05848e-07
1.05857e-07
1.0602e-07
1.0601e-07
1.0597e-07
1.0583e-07
1.05663e-07
1.05663e-07
1.05663e-07
1.05663e-07
1.05879e-07
1.05897e-07
1.05824e-07
1.05663e-07
1.05666e-07
1.05664e-07
1.05664e-07
1.05666e-07
1.05663e-07
1.06006e-07
1.06058e-07
1.06003e-07
1.0583e-07
1.05663e-07
1.05664e-07
1.05664e-07
1.05664e-07
1.05664e-07
1.05663e-07
1.06021e-07
1.06056e-07
1.05997e-07
1.05848e-07
1.05663e-07
1.05664e-07
1.05664e-07
1.05664e-07
1.05664e-07
1.05663e-07
1.06008e-07
1.05932e-07
1.05857e-07
1.05663e-07
1.05666e-07
1.05664e-07
1.05664e-07
1.05666e-07
1.05663e-07
1.0601e-07
1.06082e-07
1.0602e-07
1.05879e-07
1.05663e-07
1.05663e-07
1.05663e-07
1.05663e-07
1.06017e-07
1.05973e-07
1.06051e-07
1.0601e-07
1.05897e-07
1.06006e-07
1.06021e-07
1.06008e-07
1.0601e-07
1.05973e-07
1.06131e-07
1.06058e-07
1.06056e-07
1.05932e-07
1.06083e-07
1.06051e-07
1.04454e-07
1.04448e-07
1.04421e-07
1.04275e-07
1.04281e-07
1.04299e-07
1.04308e-07
1.04471e-07
1.04461e-07
1.04421e-07
1.04281e-07
1.04113e-07
1.04114e-07
1.04114e-07
1.04113e-07
1.0433e-07
1.04348e-07
1.04275e-07
1.04113e-07
1.04117e-07
1.04115e-07
1.04115e-07
1.04117e-07
1.04113e-07
1.04457e-07
1.04509e-07
1.04454e-07
1.04281e-07
1.04114e-07
1.04115e-07
1.04115e-07
1.04115e-07
1.04115e-07
1.04114e-07
1.04472e-07
1.04507e-07
1.04448e-07
1.04299e-07
1.04114e-07
1.04115e-07
1.04115e-07
1.04115e-07
1.04115e-07
1.04114e-07
1.04459e-07
1.04383e-07
1.04308e-07
1.04113e-07
1.04117e-07
1.04115e-07
1.04115e-07
1.04117e-07
1.04113e-07
1.04461e-07
1.04533e-07
1.04471e-07
1.0433e-07
1.04113e-07
1.04114e-07
1.04114e-07
1.04113e-07
1.04468e-07
1.04424e-07
1.04502e-07
1.04461e-07
1.04348e-07
1.04457e-07
1.04472e-07
1.04459e-07
1.04461e-07
1.04424e-07
1.04582e-07
1.04509e-07
1.04507e-07
1.04383e-07
1.04533e-07
1.04502e-07
1.02905e-07
1.02899e-07
1.02872e-07
1.02726e-07
1.02732e-07
1.0275e-07
1.02759e-07
1.02922e-07
1.02912e-07
1.02872e-07
1.02731e-07
1.02564e-07
1.02565e-07
1.02565e-07
1.02564e-07
1.02781e-07
1.02799e-07
1.02726e-07
1.02564e-07
1.02568e-07
1.02566e-07
1.02566e-07
1.02568e-07
1.02564e-07
1.02908e-07
1.02959e-07
1.02905e-07
1.02732e-07
1.02565e-07
1.02566e-07
1.02566e-07
1.02566e-07
1.02566e-07
1.02565e-07
1.02923e-07
1.02957e-07
1.02899e-07
1.0275e-07
1.02565e-07
1.02566e-07
1.02566e-07
1.02566e-07
1.02566e-07
1.02565e-07
1.0291e-07
1.02834e-07
1.02759e-07
1.02564e-07
1.02568e-07
1.02566e-07
1.02566e-07
1.02568e-07
1.02564e-07
1.02912e-07
1.02984e-07
1.02922e-07
1.02781e-07
1.02564e-07
1.02565e-07
1.02565e-07
1.02564e-07
1.02919e-07
1.02874e-07
1.02953e-07
1.02912e-07
1.02799e-07
1.02908e-07
1.02923e-07
1.0291e-07
1.02912e-07
1.02874e-07
1.03033e-07
1.02959e-07
1.02957e-07
1.02834e-07
1.02984e-07
1.02953e-07
1.01356e-07
1.01349e-07
1.01323e-07
1.01177e-07
1.01183e-07
1.01201e-07
1.0121e-07
1.01373e-07
1.01363e-07
1.01323e-07
1.01182e-07
1.01015e-07
1.01016e-07
1.01016e-07
1.01015e-07
1.01232e-07
1.01249e-07
1.01177e-07
1.01015e-07
1.01018e-07
1.01017e-07
1.01017e-07
1.01018e-07
1.01015e-07
1.01359e-07
1.0141e-07
1.01356e-07
1.01183e-07
1.01016e-07
1.01017e-07
1.01016e-07
1.01016e-07
1.01017e-07
1.01016e-07
1.01374e-07
1.01408e-07
1.01349e-07
1.01201e-07
1.01016e-07
1.01017e-07
1.01016e-07
1.01016e-07
1.01017e-07
1.01016e-07
1.01361e-07
1.01284e-07
1.0121e-07
1.01015e-07
1.01018e-07
1.01017e-07
1.01017e-07
1.01018e-07
1.01015e-07
1.01362e-07
1.01435e-07
1.01373e-07
1.01232e-07
1.01015e-07
1.01016e-07
1.01016e-07
1.01015e-07
1.0137e-07
1.01325e-07
1.01403e-07
1.01363e-07
1.01249e-07
1.01359e-07
1.01374e-07
1.01361e-07
1.01362e-07
1.01325e-07
1.01483e-07
1.0141e-07
1.01408e-07
1.01284e-07
1.01435e-07
1.01403e-07
9.98068e-08
9.98002e-08
9.97735e-08
9.96275e-08
9.96337e-08
9.96518e-08
9.96605e-08
9.98238e-08
9.98135e-08
9.97736e-08
9.9633e-08
9.94659e-08
9.94665e-08
9.94665e-08
9.94659e-08
9.96824e-08
9.97002e-08
9.96275e-08
9.94659e-08
9.94692e-08
9.94678e-08
9.94678e-08
9.94692e-08
9.94659e-08
9.98097e-08
9.9861e-08
9.98068e-08
9.96337e-08
9.94665e-08
9.94678e-08
9.94672e-08
9.94672e-08
9.94678e-08
9.94665e-08
9.98244e-08
9.98589e-08
9.98002e-08
9.96518e-08
9.94665e-08
9.94678e-08
9.94672e-08
9.94672e-08
9.94678e-08
9.94665e-08
9.98116e-08
9.97351e-08
9.96605e-08
9.94659e-08
9.94692e-08
9.94678e-08
9.94678e-08
9.94692e-08
9.94659e-08
9.98132e-08
9.98858e-08
9.98237e-08
9.96824e-08
9.94659e-08
9.94665e-08
9.94665e-08
9.94659e-08
9.98205e-08
9.9776e-08
9.98541e-08
9.98135e-08
9.97002e-08
9.98097e-08
9.98245e-08
9.98117e-08
9.98132e-08
9.9776e-08
9.99342e-08
9.9861e-08
9.98589e-08
9.97351e-08
9.98859e-08
9.98542e-08
9.82577e-08
9.82511e-08
9.82244e-08
9.80783e-08
9.80846e-08
9.81027e-08
9.81114e-08
9.82746e-08
9.82644e-08
9.82244e-08
9.80838e-08
9.79168e-08
9.79174e-08
9.79174e-08
9.79168e-08
9.81333e-08
9.81511e-08
9.80783e-08
9.79168e-08
9.79202e-08
9.79187e-08
9.79187e-08
9.79202e-08
9.79168e-08
9.82606e-08
9.83119e-08
9.82577e-08
9.80846e-08
9.79174e-08
9.79187e-08
9.79181e-08
9.79181e-08
9.79187e-08
9.79174e-08
9.82753e-08
9.83098e-08
9.82511e-08
9.81027e-08
9.79174e-08
9.79187e-08
9.79181e-08
9.79181e-08
9.79187e-08
9.79174e-08
9.82625e-08
9.8186e-08
9.81114e-08
9.79168e-08
9.79202e-08
9.79187e-08
9.79187e-08
9.79202e-08
9.79168e-08
9.82641e-08
9.83367e-08
9.82746e-08
9.81333e-08
9.79168e-08
9.79174e-08
9.79174e-08
9.79168e-08
9.82714e-08