/*--------------------------------*- C++ -*----------------------------------*\
| =========                 |                                                 |
| \\      /  F ield         | OpenFOAM: The Open Source CFD Toolbox           |
|  \\    /   O peration     | Version:  v2012                                 |
|   \\  /    A nd           | Website:  www.openfoam.com                      |
|    \\/     M anipulation  |                                                 |
\*---------------------------------------------------------------------------*/
FoamFile
{
    version     2.0;
    format      ascii;
    class       volScalarField;
    location    "0.035";
    object      p;
}
// * * * * * * * * * * * * * * * * * * * * * * * * * * * * * * * * * * * * * //

dimensions      [0 2 -2 0 0 0 0];


internalField   nonuniform List<scalar> 
189320
(
-1.11454e-05
-1.11005e-05
-1.11218e-05
-1.12009e-05
-1.12629e-05
-1.12778e-05
-1.12361e-05
-1.11954e-05
-1.11374e-05
-1.11218e-05
-1.12517e-05
-1.12872e-05
-1.13105e-05
-1.13152e-05
-1.13005e-05
-1.12737e-05
-1.1197e-05
-1.12007e-05
-1.12873e-05
-1.13198e-05
-1.13355e-05
-1.13384e-05
-1.13293e-05
-1.13035e-05
-1.12637e-05
-1.11705e-05
-1.11456e-05
-1.12631e-05
-1.13105e-05
-1.13356e-05
-1.13462e-05
-1.13481e-05
-1.13421e-05
-1.13257e-05
-1.12878e-05
-1.12142e-05
-1.11011e-05
-1.12782e-05
-1.13153e-05
-1.13384e-05
-1.13481e-05
-1.135e-05
-1.13445e-05
-1.13294e-05
-1.12998e-05
-1.11972e-05
-1.12364e-05
-1.13006e-05
-1.13294e-05
-1.13421e-05
-1.13445e-05
-1.13372e-05
-1.13172e-05
-1.12764e-05
-1.1176e-05
-1.11956e-05
-1.12738e-05
-1.13035e-05
-1.13256e-05
-1.13293e-05
-1.13171e-05
-1.12859e-05
-1.12406e-05
-1.11644e-05
-1.11376e-05
-1.1197e-05
-1.12636e-05
-1.12876e-05
-1.12996e-05
-1.12763e-05
-1.12406e-05
-1.11992e-05
-1.11704e-05
-1.1214e-05
-1.11966e-05
-1.11757e-05
-1.11642e-05
-1.11828e-05
-1.11898e-05
-1.11813e-05
-1.11653e-05
-1.11583e-05
-1.11399e-05
-1.11627e-05
-1.12138e-05
-1.11964e-05
-1.11813e-05
-1.11264e-05
-1.11411e-05
-1.11653e-05
-1.11657e-05
-1.11411e-05
-1.12054e-05
-1.11995e-05
-1.11655e-05
-1.11409e-05
-1.12224e-05
-1.12457e-05
-1.12459e-05
-1.12224e-05
-1.11409e-05
-1.12777e-05
-1.12189e-05
-1.11828e-05
-1.11588e-05
-1.11653e-05
-1.12459e-05
-1.12595e-05
-1.12595e-05
-1.12457e-05
-1.1165e-05
-1.13031e-05
-1.12187e-05
-1.11899e-05
-1.11407e-05
-1.11654e-05
-1.12459e-05
-1.12595e-05
-1.12595e-05
-1.12457e-05
-1.11652e-05
-1.12996e-05
-1.12016e-05
-1.1163e-05
-1.1141e-05
-1.12224e-05
-1.12458e-05
-1.12458e-05
-1.12224e-05
-1.1141e-05
-1.1297e-05
-1.12281e-05
-1.12138e-05
-1.12055e-05
-1.11408e-05
-1.1165e-05
-1.11654e-05
-1.11408e-05
-1.13233e-05
-1.12445e-05
-1.121e-05
-1.11965e-05
-1.11996e-05
-1.12778e-05
-1.13031e-05
-1.12996e-05
-1.12971e-05
-1.12448e-05
-1.12408e-05
-1.1219e-05
-1.12187e-05
-1.12017e-05
-1.12281e-05
-1.12099e-05
-1.10851e-05
-1.10833e-05
-1.10769e-05
-1.10613e-05
-1.10631e-05
-1.10625e-05
-1.10622e-05
-1.11077e-05
-1.10924e-05
-1.10769e-05
-1.10366e-05
-1.1029e-05
-1.1036e-05
-1.10361e-05
-1.10291e-05
-1.11127e-05
-1.1083e-05
-1.10613e-05
-1.1029e-05
-1.10605e-05
-1.10719e-05
-1.10721e-05
-1.10605e-05
-1.1029e-05
-1.11502e-05
-1.11182e-05
-1.1085e-05
-1.10631e-05
-1.1036e-05
-1.1072e-05
-1.10831e-05
-1.10832e-05
-1.10719e-05
-1.10361e-05
-1.11758e-05
-1.1115e-05
-1.10833e-05
-1.10624e-05
-1.1036e-05
-1.1072e-05
-1.10832e-05
-1.10832e-05
-1.10719e-05
-1.10361e-05
-1.11833e-05
-1.10743e-05
-1.10621e-05
-1.1029e-05
-1.10605e-05
-1.10719e-05
-1.10721e-05
-1.10605e-05
-1.1029e-05
-1.11695e-05
-1.11321e-05
-1.11077e-05
-1.11127e-05
-1.10289e-05
-1.10359e-05
-1.10361e-05
-1.1029e-05
-1.1195e-05
-1.11206e-05
-1.11064e-05
-1.10923e-05
-1.1083e-05
-1.11501e-05
-1.11758e-05
-1.11832e-05
-1.11694e-05
-1.11207e-05
-1.11345e-05
-1.11181e-05
-1.11148e-05
-1.10742e-05
-1.11321e-05
-1.11063e-05
-1.09701e-05
-1.09675e-05
-1.09628e-05
-1.09433e-05
-1.09451e-05
-1.09432e-05
-1.09451e-05
-1.09929e-05
-1.0979e-05
-1.0963e-05
-1.09172e-05
-1.09133e-05
-1.0915e-05
-1.0915e-05
-1.09133e-05
-1.09952e-05
-1.09683e-05
-1.09432e-05
-1.09133e-05
-1.09234e-05
-1.09275e-05
-1.09276e-05
-1.09234e-05
-1.09132e-05
-1.10299e-05
-1.10026e-05
-1.097e-05
-1.09451e-05
-1.09149e-05
-1.09276e-05
-1.09326e-05
-1.09326e-05
-1.09276e-05
-1.0915e-05
-1.1053e-05
-1.09976e-05
-1.09673e-05
-1.09431e-05
-1.09149e-05
-1.09276e-05
-1.09326e-05
-1.09326e-05
-1.09275e-05
-1.0915e-05
-1.10577e-05
-1.09557e-05
-1.09451e-05
-1.09132e-05
-1.09234e-05
-1.09275e-05
-1.09276e-05
-1.09234e-05
-1.09133e-05
-1.10471e-05
-1.10159e-05
-1.09928e-05
-1.09951e-05
-1.09132e-05
-1.09148e-05
-1.09149e-05
-1.09133e-05
-1.10764e-05
-1.10028e-05
-1.09915e-05
-1.0979e-05
-1.09682e-05
-1.10299e-05
-1.10528e-05
-1.10575e-05
-1.1047e-05
-1.10029e-05
-1.10217e-05
-1.10025e-05
-1.09975e-05
-1.09557e-05
-1.10158e-05
-1.09915e-05
-1.08507e-05
-1.08478e-05
-1.08444e-05
-1.08229e-05
-1.08241e-05
-1.08215e-05
-1.08249e-05
-1.08738e-05
-1.08608e-05
-1.08443e-05
-1.07958e-05
-1.07931e-05
-1.07936e-05
-1.07937e-05
-1.07931e-05
-1.08747e-05
-1.08498e-05
-1.08229e-05
-1.07931e-05
-1.07966e-05
-1.07975e-05
-1.07976e-05
-1.07966e-05
-1.07931e-05
-1.09094e-05
-1.08833e-05
-1.08506e-05
-1.0824e-05
-1.07936e-05
-1.07976e-05
-1.07988e-05
-1.07988e-05
-1.07975e-05
-1.07936e-05
-1.09299e-05
-1.08775e-05
-1.08477e-05
-1.08214e-05
-1.07936e-05
-1.07975e-05
-1.07988e-05
-1.07988e-05
-1.07975e-05
-1.07936e-05
-1.09341e-05
-1.08354e-05
-1.08248e-05
-1.07931e-05
-1.07966e-05
-1.07975e-05
-1.07976e-05
-1.07966e-05
-1.07931e-05
-1.09252e-05
-1.0896e-05
-1.08738e-05
-1.08746e-05
-1.07931e-05
-1.07936e-05
-1.07937e-05
-1.07931e-05
-1.09558e-05
-1.08831e-05
-1.08724e-05
-1.08607e-05
-1.08497e-05
-1.09093e-05
-1.09299e-05
-1.0934e-05
-1.09251e-05
-1.08832e-05
-1.09038e-05
-1.08832e-05
-1.08774e-05
-1.08354e-05
-1.0896e-05
-1.08724e-05
-1.07295e-05
-1.07265e-05
-1.07235e-05
-1.07014e-05
-1.07022e-05
-1.06992e-05
-1.07033e-05
-1.07528e-05
-1.074e-05
-1.07236e-05
-1.06737e-05
-1.06713e-05
-1.06715e-05
-1.06715e-05
-1.06713e-05
-1.07531e-05
-1.07289e-05
-1.07014e-05
-1.06713e-05
-1.06728e-05
-1.06731e-05
-1.06731e-05
-1.06728e-05
-1.06713e-05
-1.07878e-05
-1.07621e-05
-1.07294e-05
-1.07022e-05
-1.06715e-05
-1.06731e-05
-1.06736e-05
-1.06736e-05
-1.06731e-05
-1.06715e-05
-1.08075e-05
-1.07559e-05
-1.07264e-05
-1.06992e-05
-1.06715e-05
-1.06731e-05
-1.06736e-05
-1.06736e-05
-1.06731e-05
-1.06715e-05
-1.08113e-05
-1.07141e-05
-1.07033e-05
-1.06713e-05
-1.06728e-05
-1.06731e-05
-1.06731e-05
-1.06728e-05
-1.06713e-05
-1.08031e-05
-1.07747e-05
-1.07528e-05
-1.0753e-05
-1.06713e-05
-1.06715e-05
-1.06715e-05
-1.06713e-05
-1.08343e-05
-1.07619e-05
-1.07513e-05
-1.07398e-05
-1.07289e-05
-1.07878e-05
-1.08075e-05
-1.08112e-05
-1.0803e-05
-1.0762e-05
-1.07833e-05
-1.07621e-05
-1.07559e-05
-1.07141e-05
-1.07747e-05
-1.07513e-05
-1.06076e-05
-1.06047e-05
-1.06018e-05
-1.05794e-05
-1.05801e-05
-1.0577e-05
-1.05812e-05
-1.0631e-05
-1.06183e-05
-1.06019e-05
-1.05514e-05
-1.05493e-05
-1.05493e-05
-1.05493e-05
-1.05493e-05
-1.0631e-05
-1.06072e-05
-1.05795e-05
-1.05493e-05
-1.05498e-05
-1.055e-05
-1.055e-05
-1.05498e-05
-1.05492e-05
-1.06659e-05
-1.06403e-05
-1.06076e-05
-1.058e-05
-1.05493e-05
-1.055e-05
-1.05502e-05
-1.05502e-05
-1.055e-05
-1.05493e-05
-1.06853e-05
-1.06341e-05
-1.06046e-05
-1.0577e-05
-1.05493e-05
-1.055e-05
-1.05502e-05
-1.05502e-05
-1.055e-05
-1.05493e-05
-1.06889e-05
-1.05922e-05
-1.05812e-05
-1.05492e-05
-1.05498e-05
-1.055e-05
-1.055e-05
-1.05498e-05
-1.05492e-05
-1.06809e-05
-1.06529e-05
-1.0631e-05
-1.0631e-05
-1.05492e-05
-1.05493e-05
-1.05493e-05
-1.05493e-05
-1.07125e-05
-1.06401e-05
-1.06295e-05
-1.06182e-05
-1.06072e-05
-1.06659e-05
-1.06853e-05
-1.06889e-05
-1.06809e-05
-1.06402e-05
-1.06617e-05
-1.06403e-05
-1.06341e-05
-1.05922e-05
-1.06529e-05
-1.06295e-05
-1.04855e-05
-1.04826e-05
-1.04798e-05
-1.04573e-05
-1.04578e-05
-1.04547e-05
-1.04591e-05
-1.05089e-05
-1.04962e-05
-1.04798e-05
-1.04291e-05
-1.0427e-05
-1.04271e-05
-1.04271e-05
-1.04271e-05
-1.05089e-05
-1.04852e-05
-1.04573e-05
-1.04271e-05
-1.04273e-05
-1.04274e-05
-1.04274e-05
-1.04273e-05
-1.04271e-05
-1.05438e-05
-1.05182e-05
-1.04855e-05
-1.04579e-05
-1.04271e-05
-1.04273e-05
-1.04274e-05
-1.04274e-05
-1.04273e-05
-1.04271e-05
-1.05629e-05
-1.0512e-05
-1.04826e-05
-1.04547e-05
-1.04271e-05
-1.04273e-05
-1.04274e-05
-1.04274e-05
-1.04273e-05
-1.04271e-05
-1.05665e-05
-1.04701e-05
-1.04591e-05
-1.04271e-05
-1.04273e-05
-1.04273e-05
-1.04273e-05
-1.04273e-05
-1.04271e-05
-1.05586e-05
-1.05308e-05
-1.05089e-05
-1.05089e-05
-1.04271e-05
-1.04271e-05
-1.04271e-05
-1.04271e-05
-1.05905e-05
-1.05181e-05
-1.05075e-05
-1.04961e-05
-1.04851e-05
-1.05437e-05
-1.05629e-05
-1.05665e-05
-1.05586e-05
-1.05181e-05
-1.05396e-05
-1.05182e-05
-1.05119e-05
-1.04701e-05
-1.05307e-05
-1.05075e-05
-1.03633e-05
-1.03604e-05
-1.03576e-05
-1.03351e-05
-1.03356e-05
-1.03325e-05
-1.03368e-05
-1.03867e-05
-1.03741e-05
-1.03577e-05
-1.03069e-05
-1.03048e-05
-1.03048e-05
-1.03048e-05
-1.03048e-05
-1.03867e-05
-1.0363e-05
-1.03351e-05
-1.03048e-05
-1.03049e-05
-1.0305e-05
-1.0305e-05
-1.0305e-05
-1.03048e-05
-1.04216e-05
-1.03961e-05
-1.03633e-05
-1.03356e-05
-1.03048e-05
-1.0305e-05
-1.0305e-05
-1.0305e-05
-1.0305e-05
-1.03049e-05
-1.04407e-05
-1.03898e-05
-1.03604e-05
-1.03325e-05
-1.03048e-05
-1.0305e-05
-1.0305e-05
-1.0305e-05
-1.0305e-05
-1.03048e-05
-1.04443e-05
-1.03479e-05
-1.03368e-05
-1.03048e-05
-1.03049e-05
-1.0305e-05
-1.0305e-05
-1.03049e-05
-1.03048e-05
-1.04364e-05
-1.04086e-05
-1.03867e-05
-1.03867e-05
-1.03048e-05
-1.03049e-05
-1.03049e-05
-1.03048e-05
-1.04684e-05
-1.03959e-05
-1.03853e-05
-1.0374e-05
-1.0363e-05
-1.04216e-05
-1.04407e-05
-1.04443e-05
-1.04364e-05
-1.03959e-05
-1.04175e-05
-1.03961e-05
-1.03898e-05
-1.03479e-05
-1.04086e-05
-1.03853e-05
-1.02411e-05
-1.02382e-05
-1.02354e-05
-1.02128e-05
-1.02133e-05
-1.02102e-05
-1.02146e-05
-1.02645e-05
-1.02518e-05
-1.02355e-05
-1.01846e-05
-1.01826e-05
-1.01826e-05
-1.01826e-05
-1.01826e-05
-1.02644e-05
-1.02408e-05
-1.02128e-05
-1.01826e-05
-1.01826e-05
-1.01826e-05
-1.01826e-05
-1.01826e-05
-1.01826e-05
-1.02994e-05
-1.02739e-05
-1.02411e-05
-1.02133e-05
-1.01826e-05
-1.01826e-05
-1.01827e-05
-1.01827e-05
-1.01826e-05
-1.01826e-05
-1.03185e-05
-1.02676e-05
-1.02382e-05
-1.02102e-05
-1.01826e-05
-1.01826e-05
-1.01826e-05
-1.01827e-05
-1.01826e-05
-1.01826e-05
-1.0322e-05
-1.02257e-05
-1.02146e-05
-1.01826e-05
-1.01826e-05
-1.01826e-05
-1.01826e-05
-1.01826e-05
-1.01826e-05
-1.03141e-05
-1.02864e-05
-1.02645e-05
-1.02644e-05
-1.01826e-05
-1.01826e-05
-1.01826e-05
-1.01826e-05
-1.03461e-05
-1.02737e-05
-1.02631e-05
-1.02517e-05
-1.02408e-05
-1.02993e-05
-1.03184e-05
-1.0322e-05
-1.03142e-05
-1.02737e-05
-1.02953e-05
-1.02739e-05
-1.02676e-05
-1.02257e-05
-1.02863e-05
-1.02631e-05
-1.01188e-05
-1.01159e-05
-1.01131e-05
-1.00906e-05
-1.0091e-05
-1.00879e-05
-1.00923e-05
-1.01423e-05
-1.01296e-05
-1.01132e-05
-1.00623e-05
-1.00604e-05
-1.00603e-05
-1.00604e-05
-1.00603e-05
-1.01421e-05
-1.01185e-05
-1.00906e-05
-1.00603e-05
-1.00603e-05
-1.00603e-05
-1.00603e-05
-1.00603e-05
-1.00603e-05
-1.01771e-05
-1.01516e-05
-1.01188e-05
-1.00911e-05
-1.00603e-05
-1.00603e-05
-1.00604e-05
-1.00604e-05
-1.00603e-05
-1.00604e-05
-1.01961e-05
-1.01454e-05
-1.01159e-05
-1.00879e-05
-1.00603e-05
-1.00603e-05
-1.00604e-05
-1.00604e-05
-1.00603e-05
-1.00604e-05
-1.01997e-05
-1.01035e-05
-1.00923e-05
-1.00603e-05
-1.00603e-05
-1.00603e-05
-1.00603e-05
-1.00603e-05
-1.00603e-05
-1.01918e-05
-1.01641e-05
-1.01422e-05
-1.01421e-05
-1.00603e-05
-1.00604e-05
-1.00604e-05
-1.00603e-05
-1.02238e-05
-1.01514e-05
-1.01408e-05
-1.01295e-05
-1.01185e-05
-1.0177e-05
-1.01961e-05
-1.01997e-05
-1.01919e-05
-1.01515e-05
-1.01731e-05
-1.01516e-05
-1.01453e-05
-1.01034e-05
-1.01641e-05
-1.01408e-05
-9.99659e-06
-9.99366e-06
-9.99071e-06
-9.96832e-06
-9.9688e-06
-9.96567e-06
-9.97007e-06
-1.002e-05
-1.00073e-05
-9.99097e-06
-9.94007e-06
-9.93809e-06
-9.93808e-06
-9.93808e-06
-9.93808e-06
-1.00199e-05
-9.99629e-06
-9.96833e-06
-9.93808e-06
-9.93809e-06
-9.9381e-06
-9.9381e-06
-9.9381e-06
-9.93809e-06
-1.00548e-05
-1.00293e-05
-9.99656e-06
-9.96883e-06
-9.93808e-06
-9.9381e-06
-9.93809e-06
-9.93809e-06
-9.9381e-06
-9.93808e-06
-1.00739e-05
-1.00231e-05
-9.99364e-06
-9.96568e-06
-9.93808e-06
-9.9381e-06
-9.93809e-06
-9.93809e-06
-9.9381e-06
-9.93808e-06
-1.00774e-05
-9.98122e-06
-9.97008e-06
-9.93808e-06
-9.93809e-06
-9.9381e-06
-9.9381e-06
-9.93809e-06
-9.93809e-06
-1.00696e-05
-1.00419e-05
-1.002e-05
-1.00199e-05
-9.93808e-06
-9.93808e-06
-9.93808e-06
-9.93808e-06
-1.01016e-05
-1.00292e-05
-1.00186e-05
-1.00073e-05
-9.99627e-06
-1.00548e-05
-1.00739e-05
-1.00774e-05
-1.00696e-05
-1.00292e-05
-1.00508e-05
-1.00294e-05
-1.00231e-05
-9.98118e-06
-1.00418e-05
-1.00186e-05
-9.87435e-06
-9.87141e-06
-9.8685e-06
-9.84605e-06
-9.84655e-06
-9.84342e-06
-9.84782e-06
-9.89773e-06
-9.88509e-06
-9.86871e-06
-9.81781e-06
-9.81583e-06
-9.81583e-06
-9.81583e-06
-9.81583e-06
-9.89766e-06
-9.87403e-06
-9.84608e-06
-9.81583e-06
-9.81584e-06
-9.81584e-06
-9.81584e-06
-9.81584e-06
-9.81583e-06
-9.93259e-06
-9.90709e-06
-9.87431e-06
-9.84658e-06
-9.81583e-06
-9.81584e-06
-9.81584e-06
-9.81584e-06
-9.81584e-06
-9.81583e-06
-9.95166e-06
-9.90087e-06
-9.87139e-06
-9.84342e-06
-9.81583e-06
-9.81584e-06
-9.81584e-06
-9.81584e-06
-9.81584e-06
-9.81583e-06
-9.9552e-06
-9.85897e-06
-9.84782e-06
-9.81583e-06
-9.81584e-06
-9.81584e-06
-9.81584e-06
-9.81584e-06
-9.81583e-06
-9.94735e-06
-9.91963e-06
-9.89774e-06
-9.89763e-06
-9.81583e-06
-9.81583e-06
-9.81583e-06
-9.81583e-06
-9.97937e-06
-9.9069e-06
-9.89632e-06
-9.885e-06
-9.87401e-06
-9.93254e-06
-9.95162e-06
-9.95518e-06
-9.94737e-06
-9.90697e-06
-9.92857e-06
-9.9071e-06
-9.9008e-06
-9.85892e-06
-9.91958e-06
-9.89631e-06
-9.75209e-06
-9.74916e-06
-9.7462e-06
-9.72381e-06
-9.7243e-06
-9.72117e-06
-9.72557e-06
-9.77549e-06
-9.76284e-06
-9.74647e-06
-9.69557e-06
-9.69359e-06
-9.69359e-06
-9.69359e-06
-9.69359e-06
-9.77541e-06
-9.75179e-06
-9.72383e-06
-9.69358e-06
-9.69359e-06
-9.69359e-06
-9.69358e-06
-9.69358e-06
-9.69358e-06
-9.81034e-06
-9.78484e-06
-9.75206e-06
-9.72432e-06
-9.69358e-06
-9.69358e-06
-9.69358e-06
-9.69358e-06
-9.69358e-06
-9.69358e-06
-9.82941e-06
-9.77862e-06
-9.74914e-06
-9.72117e-06
-9.69358e-06
-9.69358e-06
-9.69358e-06
-9.69358e-06
-9.69358e-06
-9.69358e-06
-9.83294e-06
-9.73672e-06
-9.72557e-06
-9.69358e-06
-9.69358e-06
-9.69358e-06
-9.69358e-06
-9.69358e-06
-9.69358e-06
-9.8251e-06
-9.79738e-06
-9.77549e-06
-9.77539e-06
-9.69358e-06
-9.69358e-06
-9.69358e-06
-9.69358e-06
-9.85712e-06
-9.78465e-06
-9.77406e-06
-9.76275e-06
-9.75176e-06
-9.81029e-06
-9.82936e-06
-9.83292e-06
-9.82511e-06
-9.78472e-06
-9.80632e-06
-9.78485e-06
-9.77855e-06
-9.73667e-06
-9.79733e-06
-9.77406e-06
-9.62984e-06
-9.62691e-06
-9.62395e-06
-9.60155e-06
-9.60205e-06
-9.59892e-06
-9.60332e-06
-9.65326e-06
-9.64063e-06
-9.62421e-06
-9.57331e-06
-9.57133e-06
-9.57133e-06
-9.57133e-06
-9.57133e-06
-9.65315e-06
-9.62953e-06
-9.60158e-06
-9.57133e-06
-9.57133e-06
-9.57133e-06
-9.57133e-06
-9.57133e-06
-9.57133e-06
-9.68808e-06
-9.66259e-06
-9.62981e-06
-9.60207e-06
-9.57133e-06
-9.57133e-06
-9.57133e-06
-9.57133e-06
-9.57133e-06
-9.57133e-06
-9.70715e-06
-9.65637e-06
-9.62689e-06
-9.59892e-06
-9.57133e-06
-9.57133e-06
-9.57133e-06
-9.57133e-06
-9.57133e-06
-9.57133e-06
-9.71069e-06
-9.61446e-06
-9.60332e-06
-9.57133e-06
-9.57133e-06
-9.57133e-06
-9.57133e-06
-9.57133e-06
-9.57133e-06
-9.70285e-06
-9.67513e-06
-9.65324e-06
-9.65313e-06
-9.57133e-06
-9.57133e-06
-9.57133e-06
-9.57133e-06
-9.73486e-06
-9.6624e-06
-9.65181e-06
-9.6405e-06
-9.62951e-06
-9.68804e-06
-9.70711e-06
-9.71067e-06
-9.70286e-06
-9.66247e-06
-9.68406e-06
-9.6626e-06
-9.6563e-06
-9.61442e-06
-9.67507e-06
-9.65181e-06
-9.50758e-06
-9.50465e-06
-9.50169e-06
-9.4793e-06
-9.47979e-06
-9.47666e-06
-9.48107e-06
-9.53099e-06
-9.51834e-06
-9.50196e-06
-9.45105e-06
-9.44907e-06
-9.44907e-06
-9.44907e-06
-9.44907e-06
-9.53089e-06
-9.50727e-06
-9.47932e-06
-9.44907e-06
-9.44907e-06
-9.44907e-06
-9.44907e-06
-9.44907e-06
-9.44907e-06
-9.56583e-06
-9.54033e-06
-9.50755e-06
-9.47982e-06
-9.44907e-06
-9.44907e-06
-9.44907e-06
-9.44907e-06
-9.44907e-06
-9.44907e-06
-9.58489e-06
-9.53411e-06
-9.50463e-06
-9.47666e-06
-9.44907e-06
-9.44907e-06
-9.44907e-06
-9.44907e-06
-9.44907e-06
-9.44907e-06
-9.58843e-06
-9.49221e-06
-9.48106e-06
-9.44907e-06
-9.44907e-06
-9.44907e-06
-9.44907e-06
-9.44907e-06
-9.44907e-06
-9.58059e-06
-9.55287e-06
-9.53098e-06
-9.53088e-06
-9.44907e-06
-9.44907e-06
-9.44907e-06
-9.44907e-06
-9.61261e-06
-9.54014e-06
-9.52955e-06
-9.51824e-06
-9.50725e-06
-9.56578e-06
-9.58484e-06
-9.58841e-06
-9.5806e-06
-9.54021e-06
-9.56181e-06
-9.54035e-06
-9.53404e-06
-9.49216e-06
-9.55282e-06
-9.52955e-06
-9.38532e-06
-9.38239e-06
-9.37943e-06
-9.35704e-06
-9.35753e-06
-9.3544e-06
-9.35881e-06
-9.40875e-06
-9.39608e-06
-9.3797e-06
-9.3288e-06
-9.32682e-06
-9.32682e-06
-9.32682e-06
-9.32682e-06
-9.40864e-06
-9.38502e-06
-9.35706e-06
-9.32682e-06
-9.32682e-06
-9.32682e-06
-9.32682e-06
-9.32682e-06
-9.32682e-06
-9.44357e-06
-9.41808e-06
-9.38529e-06
-9.35756e-06
-9.32682e-06
-9.32682e-06
-9.32682e-06
-9.32682e-06
-9.32682e-06
-9.32682e-06
-9.46264e-06
-9.41185e-06
-9.38238e-06
-9.35441e-06
-9.32682e-06
-9.32682e-06
-9.32682e-06
-9.32682e-06
-9.32682e-06
-9.32682e-06
-9.46617e-06
-9.36995e-06
-9.35881e-06
-9.32682e-06
-9.32682e-06
-9.32682e-06
-9.32682e-06
-9.32682e-06
-9.32682e-06
-9.45833e-06
-9.43061e-06
-9.40872e-06
-9.40862e-06
-9.32682e-06
-9.32682e-06
-9.32682e-06
-9.32682e-06
-9.49035e-06
-9.41788e-06
-9.4073e-06
-9.39598e-06
-9.385e-06
-9.44352e-06
-9.4626e-06
-9.46618e-06
-9.45837e-06
-9.41796e-06
-9.43955e-06
-9.41809e-06
-9.41179e-06
-9.36988e-06
-9.43054e-06
-9.40729e-06
-9.26307e-06
-9.26014e-06
-9.25717e-06
-9.23478e-06
-9.23527e-06
-9.23214e-06
-9.23656e-06
-9.28649e-06
-9.27383e-06
-9.25744e-06
-9.20655e-06
-9.20456e-06
-9.20456e-06
-9.20456e-06
-9.20456e-06
-9.28639e-06
-9.26276e-06
-9.23481e-06
-9.20456e-06
-9.20456e-06
-9.20456e-06
-9.20456e-06
-9.20456e-06
-9.20456e-06
-9.32131e-06
-9.29582e-06
-9.26304e-06
-9.23531e-06
-9.20456e-06
-9.20456e-06
-9.20456e-06
-9.20456e-06
-9.20456e-06
-9.20456e-06
-9.34038e-06
-9.2896e-06
-9.26012e-06
-9.23215e-06
-9.20456e-06
-9.20456e-06
-9.20456e-06
-9.20456e-06
-9.20456e-06
-9.20456e-06
-9.34392e-06
-9.2477e-06
-9.23655e-06
-9.20457e-06
-9.20456e-06
-9.20456e-06
-9.20456e-06
-9.20456e-06
-9.20457e-06
-9.33608e-06
-9.30836e-06
-9.28647e-06
-9.28637e-06
-9.20456e-06
-9.20456e-06
-9.20456e-06
-9.20456e-06
-9.3681e-06
-9.29563e-06
-9.28505e-06
-9.27373e-06
-9.26275e-06
-9.32127e-06
-9.34035e-06
-9.34394e-06
-9.33612e-06
-9.29571e-06
-9.3173e-06
-9.29584e-06
-9.28954e-06
-9.24764e-06
-9.3083e-06
-9.28504e-06
-9.14081e-06
-9.13788e-06
-9.13492e-06
-9.11253e-06
-9.11302e-06
-9.10989e-06
-9.11429e-06
-9.16423e-06
-9.15158e-06
-9.13519e-06
-9.0843e-06
-9.08231e-06
-9.08231e-06
-9.08231e-06
-9.08231e-06
-9.16413e-06
-9.14051e-06
-9.11255e-06
-9.08231e-06
-9.08231e-06
-9.08231e-06
-9.08231e-06
-9.08231e-06
-9.08231e-06
-9.19906e-06
-9.17357e-06
-9.14079e-06
-9.11305e-06
-9.08231e-06
-9.08231e-06
-9.08231e-06
-9.08231e-06
-9.08231e-06
-9.08231e-06
-9.21813e-06
-9.16735e-06
-9.13787e-06
-9.1099e-06
-9.08231e-06
-9.08231e-06
-9.08231e-06
-9.08231e-06
-9.08231e-06
-9.08231e-06
-9.22167e-06
-9.12544e-06
-9.1143e-06
-9.08231e-06
-9.08231e-06
-9.08231e-06
-9.08231e-06
-9.08231e-06
-9.08231e-06
-9.21383e-06
-9.18611e-06
-9.16422e-06
-9.16411e-06
-9.08231e-06
-9.08231e-06
-9.08231e-06
-9.08231e-06
-9.24585e-06
-9.17338e-06
-9.16279e-06
-9.15148e-06
-9.14049e-06
-9.19902e-06
-9.21809e-06
-9.22168e-06
-9.21386e-06
-9.17345e-06
-9.19504e-06
-9.17358e-06
-9.16727e-06
-9.12543e-06
-9.18602e-06
-9.16278e-06
-9.01856e-06
-9.01563e-06
-9.01266e-06
-8.99027e-06
-8.99076e-06
-8.98763e-06
-8.99204e-06
-9.04197e-06
-9.02932e-06
-9.01294e-06
-8.96204e-06
-8.96005e-06
-8.96005e-06
-8.96005e-06
-8.96005e-06
-9.04187e-06
-9.01825e-06
-8.9903e-06
-8.96005e-06
-8.96005e-06
-8.96005e-06
-8.96005e-06
-8.96005e-06
-8.96005e-06
-9.0768e-06
-9.05131e-06
-9.01853e-06
-8.9908e-06
-8.96005e-06
-8.96005e-06
-8.96005e-06
-8.96005e-06
-8.96005e-06
-8.96005e-06
-9.09587e-06
-9.04509e-06
-9.01561e-06
-8.98764e-06
-8.96005e-06
-8.96005e-06
-8.96005e-06
-8.96005e-06
-8.96005e-06
-8.96005e-06
-9.09941e-06
-9.00319e-06
-8.99204e-06
-8.96005e-06
-8.96005e-06
-8.96005e-06
-8.96005e-06
-8.96005e-06
-8.96005e-06
-9.09157e-06
-9.06385e-06
-9.04196e-06
-9.04186e-06
-8.96005e-06
-8.96005e-06
-8.96005e-06
-8.96005e-06
-9.12359e-06
-9.05112e-06
-9.04053e-06
-9.02922e-06
-9.01824e-06
-9.07677e-06
-9.09585e-06
-9.09943e-06
-9.09161e-06
-9.0512e-06
-9.07278e-06
-9.05133e-06
-9.04503e-06
-9.00312e-06
-9.06376e-06
-9.04053e-06
-8.8963e-06
-8.89337e-06
-8.89041e-06
-8.86802e-06
-8.86851e-06
-8.86538e-06
-8.86979e-06
-8.9197e-06
-8.90706e-06
-8.89068e-06
-8.83979e-06
-8.8378e-06
-8.8378e-06
-8.8378e-06
-8.8378e-06
-8.91962e-06
-8.896e-06
-8.86804e-06
-8.8378e-06
-8.8378e-06
-8.8378e-06
-8.8378e-06
-8.8378e-06
-8.8378e-06
-8.95455e-06
-8.92905e-06
-8.89628e-06
-8.86854e-06
-8.8378e-06
-8.8378e-06
-8.8378e-06
-8.8378e-06
-8.8378e-06
-8.8378e-06
-8.97362e-06
-8.92283e-06
-8.89336e-06
-8.86538e-06
-8.8378e-06
-8.8378e-06
-8.8378e-06
-8.8378e-06
-8.8378e-06
-8.8378e-06
-8.97715e-06
-8.88093e-06
-8.86979e-06
-8.8378e-06
-8.8378e-06
-8.8378e-06
-8.8378e-06
-8.8378e-06
-8.8378e-06
-8.96931e-06
-8.94159e-06
-8.9197e-06
-8.9196e-06
-8.8378e-06
-8.8378e-06
-8.8378e-06
-8.8378e-06
-9.00133e-06
-8.92886e-06
-8.91828e-06
-8.90696e-06
-8.89598e-06
-8.95451e-06
-8.97359e-06
-8.97714e-06
-8.96932e-06
-8.92894e-06
-8.95053e-06
-8.92907e-06
-8.92277e-06
-8.88089e-06
-8.94153e-06
-8.91828e-06
-8.77405e-06
-8.77112e-06
-8.76816e-06
-8.74576e-06
-8.74625e-06
-8.74312e-06
-8.74753e-06
-8.79743e-06
-8.78479e-06
-8.76842e-06
-8.71752e-06
-8.71554e-06
-8.71554e-06
-8.71554e-06
-8.71554e-06
-8.79738e-06
-8.77375e-06
-8.74579e-06
-8.71554e-06
-8.71554e-06
-8.71554e-06
-8.71554e-06
-8.71554e-06
-8.71554e-06
-8.8323e-06
-8.8068e-06
-8.77402e-06
-8.74629e-06
-8.71554e-06
-8.71554e-06
-8.71554e-06
-8.71554e-06
-8.71554e-06
-8.71554e-06
-8.85137e-06
-8.80058e-06
-8.7711e-06
-8.74313e-06
-8.71554e-06
-8.71554e-06
-8.71554e-06
-8.71554e-06
-8.71554e-06
-8.71554e-06
-8.8549e-06
-8.75868e-06
-8.74753e-06
-8.71554e-06
-8.71554e-06
-8.71554e-06
-8.71554e-06
-8.71554e-06
-8.71554e-06
-8.84706e-06
-8.81934e-06
-8.79745e-06
-8.79735e-06
-8.71554e-06
-8.71554e-06
-8.71554e-06
-8.71554e-06
-8.87908e-06
-8.80661e-06
-8.79603e-06
-8.78471e-06
-8.77373e-06
-8.83226e-06
-8.85134e-06
-8.85489e-06
-8.84707e-06
-8.80669e-06
-8.82828e-06
-8.80682e-06
-8.80052e-06
-8.75863e-06
-8.81927e-06
-8.79601e-06
-8.65179e-06
-8.64886e-06
-8.6459e-06
-8.6235e-06
-8.624e-06
-8.62087e-06
-8.62528e-06
-8.67518e-06
-8.66253e-06
-8.64617e-06
-8.59526e-06
-8.59329e-06
-8.59329e-06
-8.59329e-06
-8.59329e-06
-8.67512e-06
-8.65149e-06
-8.62353e-06
-8.59329e-06
-8.59329e-06
-8.59329e-06
-8.59329e-06
-8.59329e-06
-8.59329e-06
-8.71004e-06
-8.68455e-06
-8.65176e-06
-8.62403e-06
-8.59329e-06
-8.59329e-06
-8.59329e-06
-8.59329e-06
-8.59329e-06
-8.59329e-06
-8.72911e-06
-8.67833e-06
-8.64885e-06
-8.62088e-06
-8.59329e-06
-8.59329e-06
-8.59329e-06
-8.59329e-06
-8.59329e-06
-8.59329e-06
-8.73265e-06
-8.63642e-06
-8.62528e-06
-8.59329e-06
-8.59329e-06
-8.59329e-06
-8.59329e-06
-8.59329e-06
-8.59329e-06
-8.72481e-06
-8.69709e-06
-8.67519e-06
-8.67509e-06
-8.59329e-06
-8.59329e-06
-8.59329e-06
-8.59329e-06
-8.75682e-06
-8.68436e-06
-8.67377e-06
-8.66245e-06
-8.65147e-06
-8.71e-06
-8.72908e-06
-8.73263e-06
-8.72481e-06
-8.68443e-06
-8.70602e-06
-8.68456e-06
-8.67827e-06
-8.63637e-06
-8.69701e-06
-8.67376e-06
-8.52953e-06
-8.52661e-06
-8.52365e-06
-8.50124e-06
-8.50174e-06
-8.49861e-06
-8.50302e-06
-8.55293e-06
-8.54029e-06
-8.52392e-06
-8.47301e-06
-8.47104e-06
-8.47104e-06
-8.47104e-06
-8.47104e-06
-8.55287e-06
-8.52924e-06
-8.50128e-06
-8.47104e-06
-8.47104e-06
-8.47104e-06
-8.47104e-06
-8.47104e-06
-8.47104e-06
-8.58779e-06
-8.56229e-06
-8.52951e-06
-8.50178e-06
-8.47104e-06
-8.47104e-06
-8.47104e-06
-8.47104e-06
-8.47104e-06
-8.47104e-06
-8.60686e-06
-8.55607e-06
-8.52659e-06
-8.49862e-06
-8.47104e-06
-8.47104e-06
-8.47104e-06
-8.47104e-06
-8.47104e-06
-8.47104e-06
-8.61039e-06
-8.51417e-06
-8.50303e-06
-8.47104e-06
-8.47104e-06
-8.47104e-06
-8.47104e-06
-8.47104e-06
-8.47104e-06
-8.60255e-06
-8.57483e-06
-8.55294e-06
-8.55284e-06
-8.47104e-06
-8.47104e-06
-8.47104e-06
-8.47104e-06
-8.63457e-06
-8.5621e-06
-8.55152e-06
-8.5402e-06
-8.52922e-06
-8.58775e-06
-8.60683e-06
-8.61038e-06
-8.60256e-06
-8.56218e-06
-8.58377e-06
-8.56231e-06
-8.55601e-06
-8.51412e-06
-8.57475e-06
-8.5515e-06
-8.40729e-06
-8.40436e-06
-8.4014e-06
-8.37899e-06
-8.3795e-06
-8.37637e-06
-8.38078e-06
-8.43068e-06
-8.41803e-06
-8.40167e-06
-8.35077e-06
-8.34879e-06
-8.34879e-06
-8.34879e-06
-8.3488e-06
-8.43063e-06
-8.40699e-06
-8.37904e-06
-8.34879e-06
-8.34879e-06
-8.34879e-06
-8.34879e-06
-8.34879e-06
-8.34879e-06
-8.46554e-06
-8.44004e-06
-8.40727e-06
-8.37954e-06
-8.34879e-06
-8.34879e-06
-8.34879e-06
-8.34879e-06
-8.34879e-06
-8.34879e-06
-8.48461e-06
-8.43383e-06
-8.40435e-06
-8.37638e-06
-8.34879e-06
-8.34879e-06
-8.34879e-06
-8.34879e-06
-8.34879e-06
-8.34879e-06
-8.48815e-06
-8.39193e-06
-8.38078e-06
-8.34879e-06
-8.34879e-06
-8.34879e-06
-8.34879e-06
-8.34879e-06
-8.34879e-06
-8.48031e-06
-8.45259e-06
-8.4307e-06
-8.43059e-06
-8.34879e-06
-8.34879e-06
-8.34879e-06
-8.34879e-06
-8.51232e-06
-8.43986e-06
-8.42927e-06
-8.41796e-06
-8.40697e-06
-8.4655e-06
-8.48458e-06
-8.48813e-06
-8.48031e-06
-8.43993e-06
-8.46152e-06
-8.44006e-06
-8.43377e-06
-8.39188e-06
-8.45251e-06
-8.42926e-06
-8.28504e-06
-8.28212e-06
-8.27916e-06
-8.25675e-06
-8.25725e-06
-8.25412e-06
-8.25855e-06
-8.30843e-06
-8.29579e-06
-8.27943e-06
-8.22852e-06
-8.22655e-06
-8.22655e-06
-8.22655e-06
-8.22655e-06
-8.30838e-06
-8.28475e-06
-8.25679e-06
-8.22655e-06
-8.22655e-06
-8.22655e-06
-8.22655e-06
-8.22655e-06
-8.22655e-06
-8.3433e-06
-8.3178e-06
-8.28502e-06
-8.25729e-06
-8.22655e-06
-8.22655e-06
-8.22655e-06
-8.22655e-06
-8.22655e-06
-8.22655e-06
-8.36237e-06
-8.31158e-06
-8.2821e-06
-8.25413e-06
-8.22655e-06
-8.22655e-06
-8.22655e-06
-8.22655e-06
-8.22655e-06
-8.22655e-06
-8.3659e-06
-8.26968e-06
-8.25853e-06
-8.22655e-06
-8.22655e-06
-8.22655e-06
-8.22655e-06
-8.22655e-06
-8.22655e-06
-8.35806e-06
-8.33034e-06
-8.30845e-06
-8.30835e-06
-8.22655e-06
-8.22655e-06
-8.22655e-06
-8.22655e-06
-8.39008e-06
-8.31761e-06
-8.30703e-06
-8.29571e-06
-8.28473e-06
-8.34326e-06
-8.36234e-06
-8.36589e-06
-8.35807e-06
-8.31769e-06
-8.33928e-06
-8.31782e-06
-8.31152e-06
-8.26963e-06
-8.33026e-06
-8.30701e-06
-8.16279e-06
-8.15987e-06
-8.1569e-06
-8.1345e-06
-8.13501e-06
-8.13188e-06
-8.1363e-06
-8.18619e-06
-8.17354e-06
-8.15718e-06
-8.10628e-06
-8.1043e-06
-8.1043e-06
-8.1043e-06
-8.1043e-06
-8.18614e-06
-8.1625e-06
-8.13454e-06
-8.1043e-06
-8.1043e-06
-8.1043e-06
-8.1043e-06
-8.1043e-06
-8.1043e-06
-8.22105e-06
-8.19555e-06
-8.16277e-06
-8.13504e-06
-8.10431e-06
-8.1043e-06
-8.1043e-06
-8.1043e-06
-8.1043e-06
-8.1043e-06
-8.24012e-06
-8.18933e-06
-8.15985e-06
-8.13189e-06
-8.10431e-06
-8.1043e-06
-8.1043e-06
-8.1043e-06
-8.1043e-06
-8.1043e-06
-8.24365e-06
-8.14743e-06
-8.13629e-06
-8.1043e-06
-8.1043e-06
-8.10431e-06
-8.10431e-06
-8.1043e-06
-8.1043e-06
-8.23582e-06
-8.20809e-06
-8.1862e-06
-8.1861e-06
-8.10429e-06
-8.1043e-06
-8.10429e-06
-8.1043e-06
-8.26783e-06
-8.19536e-06
-8.18478e-06
-8.17346e-06
-8.16248e-06
-8.22101e-06
-8.24009e-06
-8.24364e-06
-8.23582e-06
-8.19544e-06
-8.21703e-06
-8.19557e-06
-8.18927e-06
-8.14738e-06
-8.20802e-06
-8.18476e-06
-8.04055e-06
-8.03762e-06
-8.03465e-06
-8.01225e-06
-8.01276e-06
-8.00963e-06
-8.01406e-06
-8.06394e-06
-8.05129e-06
-8.03494e-06
-7.98403e-06
-7.98206e-06
-7.98206e-06
-7.98206e-06
-7.98206e-06
-8.06389e-06
-8.04026e-06
-8.0123e-06
-7.98206e-06
-7.98206e-06
-7.98206e-06
-7.98206e-06
-7.98205e-06
-7.98205e-06
-8.0988e-06
-8.0733e-06
-8.04053e-06
-8.0128e-06
-7.98206e-06
-7.98206e-06
-7.98206e-06
-7.98206e-06
-7.98205e-06
-7.98205e-06
-8.11787e-06
-8.06709e-06
-8.03761e-06
-8.00964e-06
-7.98206e-06
-7.98206e-06
-7.98206e-06
-7.98206e-06
-7.98205e-06
-7.98205e-06
-8.12141e-06
-8.02519e-06
-8.01404e-06
-7.98206e-06
-7.98206e-06
-7.98206e-06
-7.98206e-06
-7.98205e-06
-7.98206e-06
-8.11357e-06
-8.08585e-06
-8.06396e-06
-8.06386e-06
-7.98206e-06
-7.98205e-06
-7.98205e-06
-7.98206e-06
-8.14559e-06
-8.07312e-06
-8.06253e-06
-8.05122e-06
-8.04023e-06
-8.09876e-06
-8.11784e-06
-8.12139e-06
-8.11357e-06
-8.07319e-06
-8.09479e-06
-8.07332e-06
-8.06702e-06
-8.02514e-06
-8.08577e-06
-8.06252e-06
-7.91831e-06
-7.91538e-06
-7.9124e-06
-7.89001e-06
-7.89052e-06
-7.88739e-06
-7.89181e-06
-7.9417e-06
-7.92904e-06
-7.91269e-06
-7.86181e-06
-7.85981e-06
-7.85981e-06
-7.85981e-06
-7.85981e-06
-7.94164e-06
-7.918e-06
-7.89006e-06
-7.85981e-06
-7.85981e-06
-7.85981e-06
-7.85981e-06
-7.85981e-06
-7.85981e-06
-7.97656e-06
-7.95106e-06
-7.91829e-06
-7.89055e-06
-7.85981e-06
-7.85981e-06
-7.85981e-06
-7.85981e-06
-7.85981e-06
-7.85981e-06
-7.99563e-06
-7.94484e-06
-7.91537e-06
-7.88739e-06
-7.85981e-06
-7.85981e-06
-7.85981e-06
-7.85981e-06
-7.85981e-06
-7.85981e-06
-7.99916e-06
-7.90294e-06
-7.8918e-06
-7.85981e-06
-7.85981e-06
-7.85981e-06
-7.85981e-06
-7.85981e-06
-7.85981e-06
-7.99132e-06
-7.9636e-06
-7.94172e-06
-7.94161e-06
-7.85981e-06
-7.85981e-06
-7.85981e-06
-7.85981e-06
-8.02334e-06
-7.95087e-06
-7.94029e-06
-7.92898e-06
-7.91799e-06
-7.97652e-06
-7.99559e-06
-7.99914e-06
-7.99132e-06
-7.95095e-06
-7.97254e-06
-7.95108e-06
-7.94478e-06
-7.90289e-06
-7.96353e-06
-7.94027e-06
-7.79606e-06
-7.79313e-06
-7.79017e-06
-7.76776e-06
-7.76827e-06
-7.76514e-06
-7.76956e-06
-7.81943e-06
-7.80679e-06
-7.79044e-06
-7.73953e-06
-7.73756e-06
-7.73757e-06
-7.73756e-06
-7.73756e-06
-7.8194e-06
-7.79575e-06
-7.7678e-06
-7.73756e-06
-7.73756e-06
-7.73756e-06
-7.73756e-06
-7.73756e-06
-7.73756e-06
-7.85431e-06
-7.82881e-06
-7.79604e-06