/*--------------------------------*- C++ -*----------------------------------*\
| =========                 |                                                 |
| \\      /  F ield         | OpenFOAM: The Open Source CFD Toolbox           |
|  \\    /   O peration     | Version:  v2012                                 |
|   \\  /    A nd           | Website:  www.openfoam.com                      |
|    \\/     M anipulation  |                                                 |
\*---------------------------------------------------------------------------*/
FoamFile
{
    version     2.0;
    format      ascii;
    class       volScalarField;
    location    "0.1";
    object      p;
}
// * * * * * * * * * * * * * * * * * * * * * * * * * * * * * * * * * * * * * //

dimensions      [0 2 -2 0 0 0 0];


internalField   nonuniform List<scalar> 
189320
(
-2.73498e-06
-2.72164e-06
-2.74034e-06
-2.7462e-06
-2.76178e-06
-2.76617e-06
-2.75604e-06
-2.75189e-06
-2.7455e-06
-2.74032e-06
-2.76226e-06
-2.76459e-06
-2.77034e-06
-2.77152e-06
-2.76774e-06
-2.76357e-06
-2.74959e-06
-2.74617e-06
-2.76459e-06
-2.77272e-06
-2.77649e-06
-2.77722e-06
-2.77493e-06
-2.76864e-06
-2.76247e-06
-2.74818e-06
-2.73529e-06
-2.76178e-06
-2.77034e-06
-2.77649e-06
-2.77875e-06
-2.77912e-06
-2.77793e-06
-2.77409e-06
-2.76476e-06
-2.75157e-06
-2.72187e-06
-2.76623e-06
-2.77152e-06
-2.77721e-06
-2.77911e-06
-2.77943e-06
-2.77847e-06
-2.77521e-06
-2.76692e-06
-2.75012e-06
-2.75607e-06
-2.76774e-06
-2.77491e-06
-2.77792e-06
-2.77847e-06
-2.77676e-06
-2.77188e-06
-2.76339e-06
-2.7361e-06
-2.75193e-06
-2.76356e-06
-2.76862e-06
-2.77406e-06
-2.77519e-06
-2.77187e-06
-2.7645e-06
-2.76079e-06
-2.74736e-06
-2.7455e-06
-2.74956e-06
-2.76244e-06
-2.7647e-06
-2.76686e-06
-2.76337e-06
-2.76077e-06
-2.75727e-06
-2.74811e-06
-2.75151e-06
-2.74989e-06
-2.73601e-06
-2.74729e-06
-2.75487e-06
-2.7559e-06
-2.75071e-06
-2.74382e-06
-2.74303e-06
-2.73924e-06
-2.74313e-06
-2.76008e-06
-2.75706e-06
-2.7508e-06
-2.72914e-06
-2.74493e-06
-2.75052e-06
-2.75056e-06
-2.74498e-06
-2.75437e-06
-2.75883e-06
-2.74381e-06
-2.74495e-06
-2.76354e-06
-2.76456e-06
-2.7646e-06
-2.76354e-06
-2.74492e-06
-2.77767e-06
-2.76852e-06
-2.75485e-06
-2.74303e-06
-2.75054e-06
-2.7646e-06
-2.76455e-06
-2.76456e-06
-2.76458e-06
-2.75058e-06
-2.77937e-06
-2.76879e-06
-2.75589e-06
-2.73922e-06
-2.75052e-06
-2.76459e-06
-2.76456e-06
-2.76456e-06
-2.76456e-06
-2.75056e-06
-2.78015e-06
-2.76062e-06
-2.74311e-06
-2.74496e-06
-2.76353e-06
-2.76457e-06
-2.7646e-06
-2.76353e-06
-2.74493e-06
-2.78001e-06
-2.77515e-06
-2.76004e-06
-2.75435e-06
-2.74488e-06
-2.7505e-06
-2.75055e-06
-2.74494e-06
-2.80221e-06
-2.77145e-06
-2.76369e-06
-2.75702e-06
-2.75881e-06
-2.77764e-06
-2.77936e-06
-2.78016e-06
-2.78003e-06
-2.7715e-06
-2.77775e-06
-2.76851e-06
-2.76877e-06
-2.76061e-06
-2.77515e-06
-2.7637e-06
-2.73074e-06
-2.73166e-06
-2.72528e-06
-2.71779e-06
-2.7157e-06
-2.71347e-06
-2.71738e-06
-2.73475e-06
-2.73176e-06
-2.7253e-06
-2.7028e-06
-2.71668e-06
-2.71783e-06
-2.71787e-06
-2.71672e-06
-2.73031e-06
-2.73081e-06
-2.71781e-06
-2.71668e-06
-2.72469e-06
-2.7257e-06
-2.72576e-06
-2.7247e-06
-2.71669e-06
-2.75165e-06
-2.74442e-06
-2.73072e-06
-2.7157e-06
-2.71782e-06
-2.72574e-06
-2.72641e-06
-2.72644e-06
-2.72573e-06
-2.71787e-06
-2.75965e-06
-2.74396e-06
-2.73163e-06
-2.71345e-06
-2.71782e-06
-2.72575e-06
-2.72643e-06
-2.72644e-06
-2.72572e-06
-2.71787e-06
-2.76108e-06
-2.73383e-06
-2.71736e-06
-2.7167e-06
-2.72469e-06
-2.72572e-06
-2.72576e-06
-2.7247e-06
-2.71671e-06
-2.75835e-06
-2.75307e-06
-2.73471e-06
-2.73029e-06
-2.71665e-06
-2.71782e-06
-2.71785e-06
-2.7167e-06
-2.76969e-06
-2.7442e-06
-2.73981e-06
-2.73171e-06
-2.73078e-06
-2.75163e-06
-2.75964e-06
-2.76098e-06
-2.75834e-06
-2.74425e-06
-2.75274e-06
-2.74438e-06
-2.74395e-06
-2.73379e-06
-2.75305e-06
-2.7398e-06
-2.70126e-06
-2.70214e-06
-2.69673e-06
-2.6885e-06
-2.68608e-06
-2.68376e-06
-2.6881e-06
-2.7059e-06
-2.70335e-06
-2.69673e-06
-2.67303e-06
-2.68741e-06
-2.68765e-06
-2.68766e-06
-2.68742e-06
-2.70201e-06
-2.70224e-06
-2.68848e-06
-2.68741e-06
-2.69009e-06
-2.6906e-06
-2.69064e-06
-2.6901e-06
-2.68741e-06
-2.72228e-06
-2.71546e-06
-2.70125e-06
-2.68609e-06
-2.68764e-06
-2.69062e-06
-2.69111e-06
-2.69113e-06
-2.69062e-06
-2.68767e-06
-2.73051e-06
-2.71452e-06
-2.70214e-06
-2.68375e-06
-2.68764e-06
-2.69063e-06
-2.69113e-06
-2.69113e-06
-2.69062e-06
-2.68766e-06
-2.73113e-06
-2.70397e-06
-2.68809e-06
-2.6874e-06
-2.69009e-06
-2.69061e-06
-2.69064e-06
-2.6901e-06
-2.68743e-06
-2.7285e-06
-2.72389e-06
-2.70589e-06
-2.70199e-06
-2.68739e-06
-2.68763e-06
-2.68765e-06
-2.68741e-06
-2.74163e-06
-2.71492e-06
-2.71106e-06
-2.7033e-06
-2.70223e-06
-2.72226e-06
-2.73049e-06
-2.73112e-06
-2.72853e-06
-2.71497e-06
-2.72454e-06
-2.71543e-06
-2.7145e-06
-2.70395e-06
-2.7239e-06
-2.71107e-06
-2.6711e-06
-2.67204e-06
-2.66695e-06
-2.65842e-06
-2.65588e-06
-2.65345e-06
-2.65804e-06
-2.67601e-06
-2.67357e-06
-2.66695e-06
-2.64266e-06
-2.6573e-06
-2.65737e-06
-2.65737e-06
-2.65731e-06
-2.67222e-06
-2.67248e-06
-2.6584e-06
-2.6573e-06
-2.65827e-06
-2.6584e-06
-2.65842e-06
-2.65827e-06
-2.65731e-06
-2.69217e-06
-2.68556e-06
-2.67109e-06
-2.65588e-06
-2.65736e-06
-2.65841e-06
-2.65856e-06
-2.65857e-06
-2.65841e-06
-2.65737e-06
-2.70033e-06
-2.68445e-06
-2.67203e-06
-2.65344e-06
-2.65736e-06
-2.65841e-06
-2.65857e-06
-2.65858e-06
-2.6584e-06
-2.65737e-06
-2.7009e-06
-2.67385e-06
-2.65803e-06
-2.6573e-06
-2.65827e-06
-2.65841e-06
-2.65842e-06
-2.65827e-06
-2.6573e-06
-2.69811e-06
-2.69394e-06
-2.676e-06
-2.67222e-06
-2.6573e-06
-2.65736e-06
-2.65737e-06
-2.6573e-06
-2.71205e-06
-2.68493e-06
-2.68122e-06
-2.67356e-06
-2.67247e-06
-2.69216e-06
-2.70031e-06
-2.7009e-06
-2.69812e-06
-2.68498e-06
-2.6949e-06
-2.68555e-06
-2.68444e-06
-2.67384e-06
-2.69391e-06
-2.68121e-06
-2.64079e-06
-2.64172e-06
-2.63672e-06
-2.62809e-06
-2.62549e-06
-2.62299e-06
-2.62771e-06
-2.64576e-06
-2.64337e-06
-2.63673e-06
-2.61218e-06
-2.62693e-06
-2.62694e-06
-2.62694e-06
-2.62694e-06
-2.64198e-06
-2.64228e-06
-2.62809e-06
-2.62694e-06
-2.6273e-06
-2.62735e-06
-2.62735e-06
-2.6273e-06
-2.62694e-06
-2.66185e-06
-2.65531e-06
-2.64079e-06
-2.6255e-06
-2.62695e-06
-2.62735e-06
-2.6274e-06
-2.6274e-06
-2.62736e-06
-2.62695e-06
-2.66994e-06
-2.65414e-06
-2.64172e-06
-2.62299e-06
-2.62694e-06
-2.62735e-06
-2.6274e-06
-2.6274e-06
-2.62735e-06
-2.62695e-06
-2.67049e-06
-2.64352e-06
-2.6277e-06
-2.62694e-06
-2.6273e-06
-2.62735e-06
-2.62735e-06
-2.6273e-06
-2.62694e-06
-2.66769e-06
-2.66365e-06
-2.64576e-06
-2.64198e-06
-2.62693e-06
-2.62695e-06
-2.62695e-06
-2.62694e-06
-2.68195e-06
-2.65467e-06
-2.65099e-06
-2.64338e-06
-2.64227e-06
-2.66184e-06
-2.66992e-06
-2.6705e-06
-2.6677e-06
-2.65472e-06
-2.66476e-06
-2.65531e-06
-2.65414e-06
-2.64352e-06
-2.66363e-06
-2.65099e-06
-2.61039e-06
-2.61132e-06
-2.60636e-06
-2.59768e-06
-2.59504e-06
-2.59252e-06
-2.5973e-06
-2.61537e-06
-2.613e-06
-2.60636e-06
-2.58171e-06
-2.59652e-06
-2.59651e-06
-2.59651e-06
-2.59652e-06
-2.61159e-06
-2.61191e-06
-2.59767e-06
-2.59651e-06
-2.59664e-06
-2.59666e-06
-2.59666e-06
-2.59664e-06
-2.5965e-06
-2.63145e-06
-2.62493e-06
-2.61039e-06
-2.59503e-06
-2.5965e-06
-2.59666e-06
-2.59668e-06
-2.59668e-06
-2.59667e-06
-2.59651e-06
-2.63949e-06
-2.62375e-06
-2.61132e-06
-2.59252e-06
-2.5965e-06
-2.59667e-06
-2.59668e-06
-2.59668e-06
-2.59667e-06
-2.59651e-06
-2.64005e-06
-2.61312e-06
-2.5973e-06
-2.5965e-06
-2.59664e-06
-2.59666e-06
-2.59666e-06
-2.59664e-06
-2.5965e-06
-2.63727e-06
-2.63327e-06
-2.61537e-06
-2.61159e-06
-2.59651e-06
-2.59651e-06
-2.59651e-06
-2.59651e-06
-2.65165e-06
-2.6243e-06
-2.62061e-06
-2.61301e-06
-2.61191e-06
-2.63146e-06
-2.63952e-06
-2.64004e-06
-2.63727e-06
-2.62433e-06
-2.63442e-06
-2.62493e-06
-2.62375e-06
-2.61311e-06
-2.63328e-06
-2.62062e-06
-2.57995e-06
-2.58088e-06
-2.57593e-06
-2.56724e-06
-2.56458e-06
-2.56206e-06
-2.56687e-06
-2.58494e-06
-2.58258e-06
-2.57593e-06
-2.55123e-06
-2.56606e-06
-2.56607e-06
-2.56607e-06
-2.56606e-06
-2.58116e-06
-2.5815e-06
-2.56723e-06
-2.56607e-06
-2.56611e-06
-2.56612e-06
-2.56612e-06
-2.5661e-06
-2.56606e-06
-2.60101e-06
-2.5945e-06
-2.57995e-06
-2.56458e-06
-2.56607e-06
-2.56612e-06
-2.56613e-06
-2.56613e-06
-2.56611e-06
-2.56606e-06
-2.60905e-06
-2.5933e-06
-2.58087e-06
-2.56206e-06
-2.56607e-06
-2.56612e-06
-2.56613e-06
-2.56613e-06
-2.56612e-06
-2.56606e-06
-2.60959e-06
-2.58268e-06
-2.56687e-06
-2.56606e-06
-2.56611e-06
-2.56611e-06
-2.56612e-06
-2.56611e-06
-2.56606e-06
-2.60679e-06
-2.60284e-06
-2.58494e-06
-2.58116e-06
-2.56606e-06
-2.56607e-06
-2.56607e-06
-2.56606e-06
-2.62127e-06
-2.59388e-06
-2.59019e-06
-2.58259e-06
-2.58149e-06
-2.60101e-06
-2.60905e-06
-2.60958e-06
-2.60681e-06
-2.59392e-06
-2.60399e-06
-2.5945e-06
-2.5933e-06
-2.58266e-06
-2.60284e-06
-2.5902e-06
-2.54951e-06
-2.55043e-06
-2.54549e-06
-2.5368e-06
-2.53413e-06
-2.5316e-06
-2.53642e-06
-2.5545e-06
-2.55214e-06
-2.54549e-06
-2.52077e-06
-2.53561e-06
-2.53561e-06
-2.53561e-06
-2.53561e-06
-2.55072e-06
-2.55106e-06
-2.53679e-06
-2.5356e-06
-2.53564e-06
-2.53564e-06
-2.53564e-06
-2.53564e-06
-2.53562e-06
-2.57058e-06
-2.56406e-06
-2.5495e-06
-2.53413e-06
-2.53561e-06
-2.53564e-06
-2.53564e-06
-2.53564e-06
-2.53564e-06
-2.53562e-06
-2.57862e-06
-2.56287e-06
-2.55043e-06
-2.5316e-06
-2.53561e-06
-2.53564e-06
-2.53564e-06
-2.53564e-06
-2.53564e-06
-2.53561e-06
-2.57915e-06
-2.55224e-06
-2.53642e-06
-2.53561e-06
-2.53564e-06
-2.53565e-06
-2.53564e-06
-2.53564e-06
-2.53561e-06
-2.57635e-06
-2.5724e-06
-2.5545e-06
-2.55072e-06
-2.5356e-06
-2.53561e-06
-2.53561e-06
-2.5356e-06
-2.59084e-06
-2.56344e-06
-2.55975e-06
-2.55215e-06
-2.55106e-06
-2.57058e-06
-2.5786e-06
-2.57913e-06
-2.57637e-06
-2.56348e-06
-2.57357e-06
-2.56406e-06
-2.56286e-06
-2.55222e-06
-2.5724e-06
-2.55976e-06
-2.51907e-06
-2.51999e-06
-2.51505e-06
-2.50635e-06
-2.50368e-06
-2.50114e-06
-2.50598e-06
-2.52406e-06
-2.5217e-06
-2.51505e-06
-2.49032e-06
-2.50516e-06
-2.50516e-06
-2.50516e-06
-2.50516e-06
-2.52028e-06
-2.52062e-06
-2.50634e-06
-2.50516e-06
-2.50517e-06
-2.50517e-06
-2.50517e-06
-2.50517e-06
-2.50516e-06
-2.54013e-06
-2.53362e-06
-2.51906e-06
-2.50368e-06
-2.50516e-06
-2.50517e-06
-2.50518e-06
-2.50517e-06
-2.50517e-06
-2.50516e-06
-2.54817e-06
-2.53242e-06
-2.51999e-06
-2.50114e-06
-2.50516e-06
-2.50517e-06
-2.50518e-06
-2.50517e-06
-2.50518e-06
-2.50517e-06
-2.5487e-06
-2.5218e-06
-2.50597e-06
-2.50516e-06
-2.50517e-06
-2.50517e-06
-2.50517e-06
-2.50517e-06
-2.50516e-06
-2.54591e-06
-2.54196e-06
-2.52406e-06
-2.52029e-06
-2.50516e-06
-2.50516e-06
-2.50516e-06
-2.50516e-06
-2.5604e-06
-2.533e-06
-2.52931e-06
-2.52171e-06
-2.52061e-06
-2.54013e-06
-2.54816e-06
-2.54869e-06
-2.54593e-06
-2.53304e-06
-2.54313e-06
-2.53362e-06
-2.53242e-06
-2.52178e-06
-2.54196e-06
-2.52932e-06
-2.48861e-06
-2.48954e-06
-2.4846e-06
-2.4759e-06
-2.47322e-06
-2.47069e-06
-2.47552e-06
-2.49361e-06
-2.49125e-06
-2.4846e-06
-2.45987e-06
-2.47471e-06
-2.47471e-06
-2.47471e-06
-2.47471e-06
-2.48983e-06
-2.49017e-06
-2.47589e-06
-2.47471e-06
-2.47471e-06
-2.47471e-06
-2.47471e-06
-2.47471e-06
-2.47471e-06
-2.50968e-06
-2.50317e-06
-2.48861e-06
-2.47322e-06
-2.47471e-06
-2.47471e-06
-2.47471e-06
-2.47472e-06
-2.47471e-06
-2.47471e-06
-2.51771e-06
-2.50197e-06
-2.48953e-06
-2.47069e-06
-2.47471e-06
-2.47471e-06
-2.47472e-06
-2.47472e-06
-2.47471e-06
-2.47471e-06
-2.51824e-06
-2.49135e-06
-2.47552e-06
-2.47471e-06
-2.47471e-06
-2.47471e-06
-2.47471e-06
-2.47471e-06
-2.47471e-06
-2.51545e-06
-2.51151e-06
-2.4936e-06
-2.48983e-06
-2.47471e-06
-2.47471e-06
-2.47471e-06
-2.47471e-06
-2.52994e-06
-2.50255e-06
-2.49886e-06
-2.49126e-06
-2.49016e-06
-2.50968e-06
-2.51771e-06
-2.51823e-06
-2.51547e-06
-2.50259e-06
-2.51268e-06
-2.50317e-06
-2.50197e-06
-2.49133e-06
-2.51151e-06
-2.49887e-06
-2.45816e-06
-2.45909e-06
-2.45415e-06
-2.44545e-06
-2.44277e-06
-2.44024e-06
-2.44508e-06
-2.46315e-06
-2.4608e-06
-2.45415e-06
-2.42941e-06
-2.44426e-06
-2.44426e-06
-2.44426e-06
-2.44426e-06
-2.45938e-06
-2.45972e-06
-2.44544e-06
-2.44426e-06
-2.44426e-06
-2.44426e-06
-2.44426e-06
-2.44426e-06
-2.44426e-06
-2.47923e-06
-2.47272e-06
-2.45816e-06
-2.44277e-06
-2.44426e-06
-2.44426e-06
-2.44426e-06
-2.44426e-06
-2.44426e-06
-2.44426e-06
-2.48726e-06
-2.47152e-06
-2.45908e-06
-2.44024e-06
-2.44426e-06
-2.44426e-06
-2.44426e-06
-2.44426e-06
-2.44426e-06
-2.44426e-06
-2.48779e-06
-2.4609e-06
-2.44507e-06
-2.44426e-06
-2.44426e-06
-2.44426e-06
-2.44426e-06
-2.44426e-06
-2.44426e-06
-2.485e-06
-2.48106e-06
-2.46316e-06
-2.45938e-06
-2.44426e-06
-2.44426e-06
-2.44426e-06
-2.44426e-06
-2.4995e-06
-2.4721e-06
-2.46841e-06
-2.46081e-06
-2.45971e-06
-2.47923e-06
-2.48726e-06
-2.48778e-06
-2.48502e-06
-2.47214e-06
-2.48223e-06
-2.47272e-06
-2.47151e-06
-2.46088e-06
-2.48106e-06
-2.46842e-06
-2.42771e-06
-2.42863e-06
-2.4237e-06
-2.415e-06
-2.41232e-06
-2.40979e-06
-2.41462e-06
-2.4327e-06
-2.43034e-06
-2.4237e-06
-2.39896e-06
-2.41381e-06
-2.41381e-06
-2.41381e-06
-2.41381e-06
-2.42892e-06
-2.42927e-06
-2.41499e-06
-2.41381e-06
-2.41381e-06
-2.41381e-06
-2.41381e-06
-2.41381e-06
-2.41381e-06
-2.44878e-06
-2.44227e-06
-2.42771e-06
-2.41232e-06
-2.41381e-06
-2.41381e-06
-2.41381e-06
-2.41381e-06
-2.41381e-06
-2.41381e-06
-2.45681e-06
-2.44107e-06
-2.42863e-06
-2.40979e-06
-2.41381e-06
-2.41381e-06
-2.41381e-06
-2.41381e-06
-2.41381e-06
-2.41381e-06
-2.45734e-06
-2.43045e-06
-2.41462e-06
-2.41381e-06
-2.41381e-06
-2.41381e-06
-2.41381e-06
-2.41381e-06
-2.41381e-06
-2.45455e-06
-2.45061e-06
-2.43271e-06
-2.42893e-06
-2.41381e-06
-2.41381e-06
-2.41381e-06
-2.41381e-06
-2.46905e-06
-2.44165e-06
-2.43796e-06
-2.43036e-06
-2.42926e-06
-2.44878e-06
-2.45681e-06
-2.45733e-06
-2.45457e-06
-2.44169e-06
-2.45178e-06
-2.44227e-06
-2.44106e-06
-2.43043e-06
-2.45061e-06
-2.43797e-06
-2.39726e-06
-2.39819e-06
-2.39325e-06
-2.38455e-06
-2.38187e-06
-2.37934e-06
-2.38418e-06
-2.40225e-06
-2.39989e-06
-2.39325e-06
-2.36851e-06
-2.38336e-06
-2.38336e-06
-2.38336e-06
-2.38336e-06
-2.39847e-06
-2.39882e-06
-2.38454e-06
-2.38336e-06
-2.38336e-06
-2.38336e-06
-2.38336e-06
-2.38336e-06
-2.38336e-06
-2.41833e-06
-2.41182e-06
-2.39726e-06
-2.38187e-06
-2.38336e-06
-2.38336e-06
-2.38336e-06
-2.38336e-06
-2.38336e-06
-2.38336e-06
-2.42636e-06
-2.41062e-06
-2.39818e-06
-2.37934e-06
-2.38336e-06
-2.38336e-06
-2.38336e-06
-2.38336e-06
-2.38336e-06
-2.38336e-06
-2.42689e-06
-2.4e-06
-2.38417e-06
-2.38336e-06
-2.38336e-06
-2.38336e-06
-2.38336e-06
-2.38336e-06
-2.38336e-06
-2.4241e-06
-2.42016e-06
-2.40226e-06
-2.39848e-06
-2.38336e-06
-2.38336e-06
-2.38336e-06
-2.38336e-06
-2.4386e-06
-2.4112e-06
-2.40751e-06
-2.39991e-06
-2.39881e-06
-2.41833e-06
-2.42636e-06
-2.42688e-06
-2.42412e-06
-2.41124e-06
-2.42133e-06
-2.41182e-06
-2.41062e-06
-2.39998e-06
-2.42016e-06
-2.40752e-06
-2.36681e-06
-2.36773e-06
-2.3628e-06
-2.3541e-06
-2.35142e-06
-2.34889e-06
-2.35373e-06
-2.3718e-06
-2.36944e-06
-2.3628e-06
-2.33806e-06
-2.35291e-06
-2.35291e-06
-2.35291e-06
-2.35291e-06
-2.36802e-06
-2.36837e-06
-2.35409e-06
-2.35291e-06
-2.35291e-06
-2.35291e-06
-2.35291e-06
-2.35291e-06
-2.35291e-06
-2.38788e-06
-2.38137e-06
-2.36681e-06
-2.35142e-06
-2.35291e-06
-2.35291e-06
-2.35291e-06
-2.35291e-06
-2.35291e-06
-2.35291e-06
-2.39591e-06
-2.38017e-06
-2.36773e-06
-2.34889e-06
-2.35291e-06
-2.35291e-06
-2.35291e-06
-2.35291e-06
-2.35291e-06
-2.35291e-06
-2.39644e-06
-2.36955e-06
-2.35372e-06
-2.35291e-06
-2.35291e-06
-2.35291e-06
-2.35291e-06
-2.35291e-06
-2.35291e-06
-2.39365e-06
-2.38971e-06
-2.37181e-06
-2.36803e-06
-2.35291e-06
-2.35291e-06
-2.35291e-06
-2.35291e-06
-2.40815e-06
-2.38075e-06
-2.37706e-06
-2.36946e-06
-2.36836e-06
-2.38788e-06
-2.3959e-06
-2.39643e-06
-2.39367e-06
-2.38079e-06
-2.39088e-06
-2.38137e-06
-2.38017e-06
-2.36953e-06
-2.38971e-06
-2.37707e-06
-2.33636e-06
-2.33728e-06
-2.33235e-06
-2.32365e-06
-2.32097e-06
-2.31844e-06
-2.32327e-06
-2.34135e-06
-2.33899e-06
-2.33235e-06
-2.30761e-06
-2.32246e-06
-2.32246e-06
-2.32246e-06
-2.32246e-06
-2.33757e-06
-2.33792e-06
-2.32364e-06
-2.32246e-06
-2.32246e-06
-2.32246e-06
-2.32246e-06
-2.32246e-06
-2.32246e-06
-2.35743e-06
-2.35092e-06
-2.33636e-06
-2.32097e-06
-2.32246e-06
-2.32246e-06
-2.32246e-06
-2.32246e-06
-2.32246e-06
-2.32246e-06
-2.36545e-06
-2.34972e-06
-2.33728e-06
-2.31844e-06
-2.32246e-06
-2.32246e-06
-2.32246e-06
-2.32246e-06
-2.32246e-06
-2.32246e-06
-2.36598e-06
-2.33909e-06
-2.32327e-06
-2.32246e-06
-2.32246e-06
-2.32246e-06
-2.32246e-06
-2.32246e-06
-2.32246e-06
-2.3632e-06
-2.35925e-06
-2.34135e-06
-2.33758e-06
-2.32246e-06
-2.32246e-06
-2.32246e-06
-2.32246e-06
-2.3777e-06
-2.3503e-06
-2.3466e-06
-2.33901e-06
-2.33791e-06
-2.35743e-06
-2.36545e-06
-2.36598e-06
-2.36322e-06
-2.35034e-06
-2.36043e-06
-2.35092e-06
-2.34971e-06
-2.33908e-06
-2.35926e-06
-2.34662e-06
-2.30591e-06
-2.30683e-06
-2.30189e-06
-2.2932e-06
-2.29052e-06
-2.28799e-06
-2.29282e-06
-2.3109e-06
-2.30854e-06
-2.30189e-06
-2.27715e-06
-2.29201e-06
-2.29201e-06
-2.29201e-06
-2.29201e-06
-2.30712e-06
-2.30746e-06
-2.29318e-06
-2.29201e-06
-2.29201e-06
-2.29201e-06
-2.29201e-06
-2.29201e-06
-2.29201e-06
-2.32697e-06
-2.32046e-06
-2.3059e-06
-2.29052e-06
-2.29201e-06
-2.29201e-06
-2.29201e-06
-2.29201e-06
-2.29201e-06
-2.29201e-06
-2.335e-06
-2.31926e-06
-2.30683e-06
-2.28799e-06
-2.29201e-06
-2.29201e-06
-2.29201e-06
-2.29201e-06
-2.29201e-06
-2.29201e-06
-2.33553e-06
-2.30864e-06
-2.29282e-06
-2.29201e-06
-2.29201e-06
-2.29201e-06
-2.29201e-06
-2.29201e-06
-2.29201e-06
-2.33275e-06
-2.3288e-06
-2.3109e-06
-2.30713e-06
-2.29201e-06
-2.29201e-06
-2.29201e-06
-2.29201e-06
-2.34724e-06
-2.31985e-06
-2.31615e-06
-2.30856e-06
-2.30746e-06
-2.32698e-06
-2.335e-06
-2.33553e-06
-2.33277e-06
-2.31989e-06
-2.32997e-06
-2.32047e-06
-2.31926e-06
-2.30862e-06
-2.32881e-06
-2.31616e-06
-2.27546e-06
-2.27638e-06
-2.27144e-06
-2.26275e-06
-2.26007e-06
-2.25754e-06
-2.26237e-06
-2.28045e-06
-2.27809e-06
-2.27144e-06
-2.2467e-06
-2.26156e-06
-2.26156e-06
-2.26156e-06
-2.26156e-06
-2.27667e-06
-2.27701e-06
-2.26273e-06
-2.26156e-06
-2.26156e-06
-2.26156e-06
-2.26156e-06
-2.26156e-06
-2.26156e-06
-2.29653e-06
-2.29001e-06
-2.27545e-06
-2.26007e-06
-2.26156e-06
-2.26156e-06
-2.26156e-06
-2.26156e-06
-2.26156e-06
-2.26156e-06
-2.30455e-06
-2.28881e-06
-2.27638e-06
-2.25754e-06
-2.26156e-06
-2.26156e-06
-2.26156e-06
-2.26156e-06
-2.26156e-06
-2.26156e-06
-2.30508e-06
-2.27819e-06
-2.26237e-06
-2.26156e-06
-2.26156e-06
-2.26156e-06
-2.26156e-06
-2.26156e-06
-2.26156e-06
-2.3023e-06
-2.29835e-06
-2.28045e-06
-2.27668e-06
-2.26156e-06
-2.26156e-06
-2.26156e-06
-2.26156e-06
-2.31679e-06
-2.2894e-06
-2.2857e-06
-2.27811e-06
-2.27701e-06
-2.29653e-06
-2.30455e-06
-2.30508e-06
-2.30232e-06
-2.28944e-06
-2.29953e-06
-2.29002e-06
-2.28881e-06
-2.27818e-06
-2.29836e-06
-2.28572e-06
-2.24501e-06
-2.24593e-06
-2.24099e-06
-2.2323e-06
-2.22962e-06
-2.22708e-06
-2.23192e-06
-2.25e-06
-2.24764e-06
-2.24099e-06
-2.21625e-06
-2.23111e-06
-2.23111e-06
-2.23111e-06
-2.23111e-06
-2.24622e-06
-2.24656e-06
-2.23228e-06
-2.23111e-06
-2.23111e-06
-2.23111e-06
-2.23111e-06
-2.23111e-06
-2.23111e-06
-2.26608e-06
-2.25956e-06
-2.245e-06
-2.22962e-06
-2.23111e-06
-2.23111e-06
-2.23111e-06
-2.23111e-06
-2.23111e-06
-2.23111e-06
-2.2741e-06
-2.25836e-06
-2.24593e-06
-2.22709e-06
-2.23111e-06
-2.23111e-06
-2.23111e-06
-2.23111e-06
-2.23111e-06
-2.23111e-06
-2.27463e-06
-2.24774e-06
-2.23192e-06
-2.23111e-06
-2.23111e-06
-2.23111e-06
-2.23111e-06
-2.23111e-06
-2.23111e-06
-2.27185e-06
-2.2679e-06
-2.25e-06
-2.24623e-06
-2.23111e-06
-2.23111e-06
-2.23111e-06
-2.23111e-06
-2.28634e-06
-2.25895e-06
-2.25525e-06
-2.24766e-06
-2.24656e-06
-2.26608e-06
-2.2741e-06
-2.27463e-06
-2.27187e-06
-2.25899e-06
-2.26908e-06
-2.25957e-06
-2.25836e-06
-2.24773e-06
-2.26791e-06
-2.25527e-06
-2.21456e-06
-2.21548e-06
-2.21054e-06
-2.20185e-06
-2.19917e-06
-2.19664e-06
-2.20147e-06
-2.21955e-06
-2.21719e-06
-2.21054e-06
-2.1858e-06
-2.20066e-06
-2.20066e-06
-2.20066e-06
-2.20066e-06
-2.21577e-06
-2.21611e-06
-2.20183e-06
-2.20066e-06
-2.20066e-06
-2.20066e-06
-2.20066e-06
-2.20066e-06
-2.20066e-06
-2.23563e-06
-2.22911e-06
-2.21455e-06
-2.19917e-06
-2.20066e-06
-2.20066e-06
-2.20066e-06
-2.20066e-06
-2.20066e-06
-2.20066e-06
-2.24365e-06
-2.22791e-06
-2.21548e-06
-2.19663e-06
-2.20066e-06
-2.20066e-06
-2.20066e-06
-2.20066e-06
-2.20066e-06
-2.20066e-06
-2.24418e-06
-2.21729e-06
-2.20147e-06
-2.20066e-06
-2.20066e-06
-2.20066e-06
-2.20066e-06
-2.20066e-06
-2.20066e-06
-2.2414e-06
-2.23745e-06
-2.21955e-06
-2.21578e-06
-2.20066e-06
-2.20066e-06
-2.20066e-06
-2.20066e-06
-2.25589e-06
-2.2285e-06
-2.2248e-06
-2.21721e-06
-2.21611e-06
-2.23563e-06
-2.24365e-06
-2.24418e-06
-2.24142e-06
-2.22853e-06
-2.23862e-06
-2.22912e-06
-2.22791e-06
-2.21728e-06
-2.23746e-06
-2.22481e-06
-2.18411e-06
-2.18503e-06
-2.18009e-06
-2.1714e-06
-2.16872e-06
-2.16618e-06
-2.17102e-06
-2.1891e-06
-2.18674e-06
-2.18009e-06
-2.15535e-06
-2.1702e-06
-2.1702e-06
-2.1702e-06
-2.17021e-06
-2.18532e-06
-2.18566e-06
-2.17138e-06
-2.1702e-06
-2.1702e-06
-2.1702e-06
-2.1702e-06
-2.1702e-06
-2.17021e-06
-2.20518e-06
-2.19866e-06
-2.1841e-06
-2.16872e-06
-2.1702e-06
-2.1702e-06
-2.1702e-06
-2.1702e-06
-2.1702e-06
-2.1702e-06
-2.2132e-06
-2.19746e-06
-2.18503e-06
-2.16618e-06
-2.1702e-06
-2.1702e-06
-2.1702e-06
-2.1702e-06
-2.1702e-06
-2.1702e-06
-2.21373e-06
-2.18684e-06
-2.17102e-06
-2.1702e-06
-2.1702e-06
-2.1702e-06
-2.1702e-06
-2.1702e-06
-2.1702e-06
-2.21095e-06
-2.207e-06
-2.1891e-06
-2.18533e-06
-2.1702e-06
-2.1702e-06
-2.1702e-06
-2.1702e-06
-2.22544e-06
-2.19805e-06
-2.19435e-06
-2.18676e-06
-2.18566e-06
-2.20518e-06
-2.2132e-06
-2.21373e-06
-2.21097e-06
-2.19808e-06
-2.20817e-06
-2.19867e-06
-2.19746e-06
-2.18683e-06
-2.207e-06
-2.19436e-06
-2.15366e-06
-2.15458e-06
-2.14964e-06
-2.14094e-06
-2.13826e-06
-2.13573e-06
-2.14057e-06
-2.15865e-06
-2.15629e-06
-2.14964e-06
-2.1249e-06
-2.13975e-06
-2.13975e-06
-2.13975e-06
-2.13975e-06
-2.15487e-06
-2.15521e-06
-2.14093e-06
-2.13975e-06
-2.13975e-06
-2.13975e-06
-2.13975e-06
-2.13975e-06
-2.13975e-06
-2.17472e-06
-2.16821e-06
-2.15365e-06
-2.13826e-06
-2.13975e-06
-2.13975e-06
-2.13975e-06
-2.13975e-06
-2.13975e-06
-2.13975e-06
-2.18275e-06
-2.16701e-06
-2.15458e-06
-2.13573e-06
-2.13975e-06
-2.13975e-06
-2.13975e-06
-2.13975e-06
-2.13975e-06
-2.13975e-06
-2.18328e-06
-2.15639e-06
-2.14057e-06
-2.13975e-06
-2.13975e-06
-2.13975e-06
-2.13975e-06
-2.13975e-06
-2.13975e-06
-2.18049e-06
-2.17655e-06
-2.15865e-06
-2.15488e-06
-2.13975e-06
-2.13975e-06
-2.13975e-06
-2.13975e-06
-2.19499e-06
-2.16759e-06
-2.1639e-06
-2.1563e-06
-2.15521e-06
-2.17472e-06
-2.18275e-06
-2.18328e-06
-2.18052e-06
-2.16763e-06
-2.17772e-06
-2.16821e-06
-2.16701e-06
-2.15638e-06
-2.17655e-06
-2.16391e-06
-2.12321e-06
-2.12413e-06
-2.11919e-06
-2.11049e-06
-2.10781e-06
-2.10528e-06
-2.11012e-06
-2.1282e-06
-2.12584e-06
-2.11919e-06
-2.09445e-06
-2.1093e-06
-2.1093e-06
-2.1093e-06
-2.1093e-06
-2.12441e-06
-2.12476e-06
-2.11048e-06
-2.1093e-06
-2.1093e-06
-2.1093e-06
-2.1093e-06
-2.1093e-06
-2.1093e-06
-2.14427e-06
-2.13776e-06
-2.1232e-06
-2.10781e-06
-2.1093e-06
-2.1093e-06
-2.1093e-06
-2.1093e-06
-2.1093e-06
-2.1093e-06
-2.1523e-06
-2.13656e-06
-2.12413e-06
-2.10528e-06
-2.1093e-06
-2.1093e-06
-2.1093e-06
-2.1093e-06
-2.1093e-06
-2.1093e-06
-2.15283e-06
-2.12594e-06
-2.11012e-06
-2.1093e-06
-2.1093e-06
-2.1093e-06
-2.1093e-06
-2.1093e-06
-2.1093e-06
-2.15004e-06
-2.1461e-06
-2.1282e-06
-2.12443e-06
-2.1093e-06
-2.1093e-06
-2.1093e-06
-2.1093e-06
-2.16454e-06
-2.13714e-06
-2.13345e-06
-2.12585e-06
-2.12476e-06
-2.14427e-06
-2.1523e-06
-2.15283e-06
-2.15007e-06
-2.13718e-06
-2.14727e-06
-2.13776e-06
-2.13656e-06
-2.12593e-06
-2.1461e-06
-2.13346e-06
-2.09275e-06
-2.09368e-06
-2.08874e-06
-2.08004e-06
-2.07736e-06
-2.07483e-06
-2.07967e-06
-2.09775e-06
-2.09539e-06
-2.08874e-06
-2.064e-06
-2.07885e-06
-2.07885e-06
-2.07885e-06
-2.07885e-06
-2.09396e-06
-2.09431e-06
-2.08003e-06
-2.07885e-06
-2.07885e-06
-2.07885e-06
-2.07885e-06
-2.07885e-06
-2.07885e-06
-2.11382e-06
-2.10731e-06
-2.09275e-06
-2.07736e-06
-2.07885e-06
-2.07885e-06
-2.07885e-06
-2.07885e-06
-2.07885e-06
-2.07885e-06
-2.12185e-06
-2.10611e-06
-2.09367e-06
-2.07483e-06
-2.07885e-06
-2.07885e-06
-2.07885e-06
-2.07885e-06
-2.07885e-06
-2.07885e-06
-2.12238e-06
-2.09549e-06
-2.07967e-06
-2.07885e-06
-2.07885e-06
-2.07885e-06
-2.07885e-06
-2.07885e-06
-2.07885e-06
-2.11959e-06
-2.11565e-06
-2.09775e-06
-2.09398e-06
-2.07885e-06
-2.07885e-06
-2.07885e-06
-2.07885e-06
-2.13409e-06
-2.10669e-06
-2.103e-06
-2.0954e-06
-2.09431e-06
-2.11382e-06
-2.12185e-06
-2.12238e-06
-2.11962e-06
-2.10673e-06
-2.11682e-06
-2.10731e-06
-2.10611e-06
-2.09548e-06
-2.11565e-06
-2.10301e-06
-2.0623e-06
-2.06322e-06
-2.05829e-06
-2.04959e-06
-2.04691e-06
-2.04438e-06
-2.04922e-06
-2.0673e-06
-2.06494e-06
-2.05829e-06
-2.03355e-06
-2.0484e-06
-2.0484e-06
-2.0484e-06
-2.0484e-06
-2.06351e-06
-2.06386e-06
-2.04958e-06
-2.0484e-06
-2.0484e-06
-2.0484e-06
-2.0484e-06
-2.0484e-06
-2.0484e-06
-2.08337e-06
-2.07686e-06
-2.0623e-06
-2.04691e-06
-2.0484e-06
-2.0484e-06
-2.0484e-06
-2.0484e-06
-2.0484e-06
-2.0484e-06
-2.0914e-06
-2.07566e-06
-2.06322e-06
-2.04438e-06
-2.0484e-06
-2.0484e-06
-2.0484e-06
-2.0484e-06
-2.0484e-06
-2.0484e-06
-2.09193e-06
-2.06503e-06
-2.04921e-06
-2.0484e-06
-2.0484e-06
-2.0484e-06
-2.0484e-06
-2.0484e-06
-2.0484e-06
-2.08914e-06
-2.0852e-06
-2.0673e-06
-2.06352e-06
-2.0484e-06
-2.0484e-06
-2.0484e-06
-2.0484e-06
-2.10364e-06
-2.07624e-06
-2.07255e-06
-2.06495e-06
-2.06385e-06
-2.08337e-06
-2.09139e-06
-2.09193e-06
-2.08917e-06
-2.07628e-06
-2.08637e-06
-2.07686e-06
-2.07566e-06
-2.06503e-06
-2.0852e-06
-2.07255e-06
-2.03185e-06
-2.03277e-06
-2.02784e-06
-2.01914e-06
-2.01646e-06
-2.01393e-06
-2.01877e-06
-2.03685e-06
-2.03449e-06
-2.02784e-06
-2.0031e-06
-2.01795e-06
-2.01795e-06
-2.01795e-06
-2.01795e-06
-2.03306e-06
-2.03341e-06
-2.01913e-06
-2.01795e-06
-2.01795e-06
-2.01795e-06
-2.01795e-06
-2.01795e-06
-2.01795e-06
-2.05292e-06
-2.04641e-06
-2.03185e-06
-2.01646e-06
-2.01795e-06
-2.01795e-06
-2.01795e-06
-2.01795e-06
-2.01795e-06
-2.01795e-06
-2.06095e-06
-2.04521e-06
-2.03277e-06
-2.01393e-06
-2.01795e-06
-2.01795e-06
-2.01795e-06
-2.01795e-06
-2.01795e-06
-2.01795e-06
-2.06148e-06
-2.03458e-06
-2.01876e-06
-2.01795e-06
-2.01795e-06
-2.01795e-06
-2.01795e-06
-2.01795e-06
-2.01795e-06
-2.05869e-06
-2.05474e-06
-2.03684e-06
-2.03307e-06
-2.01795e-06
-2.01795e-06
-2.01795e-06
-2.01795e-06
-2.07319e-06
-2.04579e-06
-2.04209e-06
-2.0345e-06
-2.0334e-06
-2.05292e-06
-2.06094e-06
-2.06147e-06
-2.05871e-06
-2.04583e-06
-2.05592e-06
-2.04641e-06
-2.04521e-06
-2.03457e-06
-2.05475e-06
-2.0421e-06
-2.0014e-06
-2.00232e-06
-1.99739e-06
-1.98869e-06
-1.98601e-06
-1.98348e-06
-1.98832e-06
-2.0064e-06
-2.00403e-06
-1.99739e-06
-1.97265e-06
-1.9875e-06
-1.9875e-06
-1.9875e-06
-1.9875e-06
-2.00261e-06
-2.00296e-06
-1.98868e-06
-1.9875e-06
-1.9875e-06
-1.9875e-06
-1.9875e-06
-1.9875e-06
-1.9875e-06
-2.02247e-06
-2.01596e-06
-2.0014e-06
-1.98601e-06
-1.9875e-06
-1.9875e-06
-1.9875e-06
-1.9875e-06
-1.9875e-06
-1.9875e-06
-2.03049e-06
-2.01476e-06
-2.00232e-06
-1.98348e-06
-1.9875e-06
-1.9875e-06
-1.9875e-06
-1.9875e-06
-1.9875e-06
-1.9875e-06
-2.03102e-06
-2.00413e-06
-1.98831e-06
-1.9875e-06
-1.9875e-06
-1.9875e-06
-1.9875e-06
-1.9875e-06
-1.9875e-06
-2.02824e-06
-2.02429e-06
-2.00639e-06
-2.00262e-06
-1.9875e-06
-1.9875e-06
-1.9875e-06
-1.9875e-06
-2.04274e-06
-2.01534e-06
-2.01164e-06
-2.00405e-06
-2.00295e-06
-2.02247e-06
-2.03049e-06
-2.03102e-06
-2.02826e-06
-2.01538e-06
-2.02547e-06
-2.01596e-06
-2.01476e-06
-2.00412e-06
-2.02429e-06
-2.01165e-06
-1.97095e-06
-1.97187e-06
-1.96694e-06
-1.95823e-06
-1.95556e-06
-1.95303e-06
-1.95787e-06
-1.97595e-06
-1.97358e-06
-1.96694e-06
-1.9422e-06
-1.95705e-06
-1.95705e-06
-1.95705e-06
-1.95705e-06
-1.97216e-06
-1.97251e-06
-1.95823e-06
-1.95705e-06
-1.95705e-06
-1.95705e-06
-1.95705e-06
-1.95705e-06
-1.95705e-06
-1.99202e-06
-1.98551e-06
-1.97095e-06
-1.95556e-06
-1.95705e-06
-1.95705e-06
-1.95705e-06
-1.95705e-06
-1.95705e-06
-1.95705e-06
-2.00005e-06
-1.98431e-06
-1.97187e-06
-1.95303e-06
-1.95705e-06
-1.95705e-06
-1.95705e-06
-1.95705e-06
-1.95705e-06
-1.95705e-06
-2.00058e-06
-1.97368e-06
-1.95786e-06
-1.95705e-06
-1.95705e-06
-1.95705e-06
-1.95705e-06
-1.95705e-06
-1.95705e-06
-1.99779e-06
-1.99384e-06
-1.97594e-06
-1.97217e-06
-1.95705e-06
-1.95705e-06
-1.95705e-06
-1.95705e-06
-2.01229e-06
-1.98489e-06
-1.98119e-06
-1.9736e-06
-1.9725e-06
-1.99202e-06
-2.00004e-06
-2.00058e-06
-1.99782e-06
-1.98493e-06
-1.99502e-06
-1.98551e-06
-1.98431e-06
-1.97368e-06
-1.99385e-06
-1.9812e-06
-1.9405e-06
-1.94142e-06
-1.93649e-06
-1.92778e-06
-1.92511e-06
-1.92258e-06
-1.92742e-06
-1.9455e-06
-1.94313e-06
-1.93649e-06
-1.91175e-06
-1.9266e-06
-1.9266e-06
-1.9266e-06
-1.9266e-06
-1.94172e-06
-1.94206e-06
-1.92778e-06
-1.9266e-06
-1.9266e-06
-1.9266e-06
-1.9266e-06
-1.9266e-06
-1.9266e-06
-1.96157e-06
-1.95506e-06
-1.94049e-06
-1.92511e-06
-1.9266e-06
-1.9266e-06
-1.9266e-06
-1.9266e-06
-1.9266e-06
-1.9266e-06
-1.96959e-06
-1.95386e-06
-1.94142e-06
-1.92258e-06
-1.9266e-06
-1.9266e-06
-1.9266e-06
-1.9266e-06
-1.9266e-06
-1.9266e-06
-1.97012e-06
-1.94323e-06
-1.92741e-06
-1.9266e-06
-1.9266e-06
-1.9266e-06
-1.9266e-06
-1.9266e-06
-1.9266e-06
-1.96734e-06
-1.96339e-06
-1.94549e-06
-1.94172e-06
-1.9266e-06
-1.9266e-06
-1.9266e-06
-1.9266e-06
-1.98184e-06
-1.95444e-06
-1.95074e-06
-1.94315e-06
-1.94205e-06
-1.96157e-06
-1.96959e-06
-1.97013e-06
-1.96736e-06
-1.95448e-06
-1.96457e-06
-1.95506e-06
-1.95386e-06
-1.94322e-06
-1.96339e-06
-1.95075e-06
-1.91005e-06
-1.91097e-06
-1.90604e-06
-1.89734e-06
-1.89466e-06
-1.89213e-06
-1.89697e-06
-1.91504e-06
-1.91268e-06
-1.90604e-06
-1.8813e-06
-1.89615e-06
-1.89615e-06
-1.89615e-06
-1.89615e-06
-1.91127e-06
-1.9116e-06
-1.89733e-06
-1.89615e-06
-1.89615e-06
-1.89615e-06
-1.89615e-06
-1.89615e-06
-1.89615e-06
-1.93112e-06
-1.92461e-06
-1.91005e-06
-1.89466e-06
-1.89615e-06
-1.89615e-06
-1.89615e-06
-1.89615e-06
-1.89615e-06
-1.89615e-06
-1.93914e-06
-1.9234e-06