/*--------------------------------*- C++ -*----------------------------------*\
| =========                 |                                                 |
| \\      /  F ield         | OpenFOAM: The Open Source CFD Toolbox           |
|  \\    /   O peration     | Version:  v2012                                 |
|   \\  /    A nd           | Website:  www.openfoam.com                      |
|    \\/     M anipulation  |                                                 |
\*---------------------------------------------------------------------------*/
FoamFile
{
    version     2.0;
    format      ascii;
    class       volScalarField;
    location    "0.29";
    object      p;
}
// * * * * * * * * * * * * * * * * * * * * * * * * * * * * * * * * * * * * * //

dimensions      [0 2 -2 0 0 0 0];


internalField   nonuniform List<scalar> 
189320
(
4.44508e-07
4.45164e-07
4.37207e-07
4.36749e-07
4.34321e-07
4.33607e-07
4.35777e-07
4.37018e-07
4.3431e-07
4.37186e-07
4.33158e-07
4.33749e-07
4.32757e-07
4.32528e-07
4.33262e-07
4.33508e-07
4.35617e-07
4.36726e-07
4.3373e-07
4.32205e-07
4.31553e-07
4.31423e-07
4.31869e-07
4.32892e-07
4.33175e-07
4.37707e-07
4.44406e-07
4.3428e-07
4.32747e-07
4.3155e-07
4.31047e-07
4.3096e-07
4.3125e-07
4.32074e-07
4.33739e-07
4.3723e-07
4.45093e-07
4.33597e-07
4.32523e-07
4.31423e-07
4.30962e-07
4.30878e-07
4.31135e-07
4.31865e-07
4.33612e-07
4.35556e-07
4.35769e-07
4.33263e-07
4.31874e-07
4.31255e-07
4.31137e-07
4.31516e-07
4.32457e-07
4.33622e-07
4.46676e-07
4.37019e-07
4.33516e-07
4.32904e-07
4.32088e-07
4.31873e-07
4.32459e-07
4.33592e-07
4.33058e-07
4.37316e-07
4.34319e-07
4.35636e-07
4.33211e-07
4.33771e-07
4.33629e-07
4.33629e-07
4.3306e-07
4.32164e-07
4.37739e-07
4.37267e-07
4.35596e-07
4.46697e-07
4.37331e-07
4.25518e-07
4.25296e-07
4.27154e-07
4.25942e-07
4.25985e-07
4.25768e-07
4.25829e-07
4.24964e-07
4.25572e-07
4.27145e-07
4.27565e-07
4.20244e-07
4.19937e-07
4.19939e-07
4.20227e-07
4.21682e-07
4.22251e-07
4.25911e-07
4.20238e-07
4.18644e-07
4.1916e-07
4.19151e-07
4.18644e-07
4.20259e-07
4.18059e-07
4.21499e-07
4.25502e-07
4.25977e-07
4.19939e-07
4.19149e-07
4.19364e-07
4.1936e-07
4.19155e-07
4.1993e-07
4.17615e-07
4.21053e-07
4.25292e-07
4.25774e-07
4.19942e-07
4.19149e-07
4.19361e-07
4.1936e-07
4.19159e-07
4.19936e-07
4.17501e-07
4.21912e-07
4.25842e-07
4.20225e-07
4.18643e-07
4.19155e-07
4.19146e-07
4.18648e-07
4.20246e-07
4.1765e-07
4.18397e-07
4.24985e-07
4.21702e-07
4.2026e-07
4.19939e-07
4.1994e-07
4.20244e-07
4.11862e-07
4.1964e-07
4.23226e-07
4.25587e-07
4.22256e-07
4.18067e-07
4.17617e-07
4.17506e-07
4.17658e-07
4.19614e-07
4.18892e-07
4.21506e-07
4.21064e-07
4.21909e-07
4.18387e-07
4.23212e-07
4.20636e-07
4.20169e-07
4.22207e-07
4.21381e-07
4.21801e-07
4.21969e-07
4.21083e-07
4.19893e-07
4.20375e-07
4.22205e-07
4.24463e-07
4.16661e-07
4.16538e-07
4.16536e-07
4.1666e-07
4.18306e-07
4.17661e-07
4.21377e-07
4.16658e-07
4.15642e-07
4.1566e-07
4.15651e-07
4.15647e-07
4.16662e-07
4.12126e-07
4.16289e-07
4.20632e-07
4.21797e-07
4.16536e-07
4.15651e-07
4.15674e-07
4.15669e-07
4.15656e-07
4.16533e-07
4.10472e-07
4.16482e-07
4.20167e-07
4.21967e-07
4.16538e-07
4.15649e-07
4.1567e-07
4.15669e-07
4.15657e-07
4.16535e-07
4.10503e-07
4.16688e-07
4.21076e-07
4.16658e-07
4.15643e-07
4.15657e-07
4.15648e-07
4.15647e-07
4.16662e-07
4.10756e-07
4.13372e-07
4.19895e-07
4.18313e-07
4.16664e-07
4.16537e-07
4.16536e-07
4.16662e-07
4.0686e-07
4.14107e-07
4.17388e-07
4.20381e-07
4.17669e-07
4.12132e-07
4.1048e-07
4.10507e-07
4.10768e-07
4.1412e-07
4.13476e-07
4.16283e-07
4.16482e-07
4.16691e-07
4.13379e-07
4.17402e-07
4.16089e-07
4.15611e-07
4.17602e-07
4.17045e-07
4.17548e-07
4.17786e-07
4.16689e-07
4.1536e-07
4.15732e-07
4.17603e-07
4.20199e-07
4.12482e-07
4.12444e-07
4.12443e-07
4.12479e-07
4.13652e-07
4.12968e-07
4.1704e-07
4.12481e-07
4.12097e-07
4.12071e-07
4.12068e-07
4.12096e-07
4.12482e-07
4.07634e-07
4.1172e-07
4.16096e-07
4.17536e-07
4.12448e-07
4.12069e-07
4.12058e-07
4.12055e-07
4.12068e-07
4.12442e-07
4.05522e-07
4.11877e-07
4.1562e-07
4.17786e-07
4.12446e-07
4.12067e-07
4.12054e-07
4.12054e-07
4.12069e-07
4.12444e-07
4.05513e-07
4.12099e-07
4.16689e-07
4.12482e-07
4.12095e-07
4.12069e-07
4.12067e-07
4.12096e-07
4.12479e-07
4.05884e-07
4.08764e-07
4.15358e-07
4.13654e-07
4.12483e-07
4.12448e-07
4.12446e-07
4.12481e-07
4.01894e-07
4.09387e-07
4.12763e-07
4.15731e-07
4.12968e-07
4.07641e-07
4.05528e-07
4.05512e-07
4.05876e-07
4.09385e-07
4.08777e-07
4.11728e-07
4.11873e-07
4.12103e-07
4.08763e-07
4.12765e-07
4.11788e-07
4.11308e-07
4.13287e-07
4.12784e-07
4.13358e-07
4.13601e-07
4.12395e-07
4.11049e-07
4.11401e-07
4.1328e-07
4.16004e-07
4.08265e-07
4.08257e-07
4.08257e-07
4.08266e-07
4.09328e-07
4.08635e-07
4.12781e-07
4.08266e-07
4.08126e-07
4.08119e-07
4.08117e-07
4.08126e-07
4.08265e-07
4.03291e-07
4.07404e-07
4.1179e-07
4.1336e-07
4.08256e-07
4.08119e-07
4.08114e-07
4.08112e-07
4.08118e-07
4.08256e-07
4.01115e-07
4.07557e-07
4.11311e-07
4.136e-07
4.08257e-07
4.08118e-07
4.08112e-07
4.08111e-07
4.08119e-07
4.08257e-07
4.01131e-07
4.07793e-07
4.12392e-07
4.08266e-07
4.08126e-07
4.08118e-07
4.08116e-07
4.08125e-07
4.08266e-07
4.01581e-07
4.04432e-07
4.11051e-07
4.09331e-07
4.08266e-07
4.08257e-07
4.08257e-07
4.08266e-07
3.975e-07
4.05079e-07
4.08424e-07
4.11402e-07
4.08634e-07
4.03294e-07
4.01119e-07
4.01127e-07
4.01575e-07
4.05077e-07
4.04441e-07
4.07405e-07
4.07553e-07
4.07792e-07
4.04435e-07
4.08425e-07
4.07563e-07
4.07084e-07
4.09052e-07
4.0857e-07
4.09167e-07
4.0941e-07
4.08167e-07
4.06819e-07
4.07164e-07
4.09049e-07
4.11815e-07
4.04062e-07
4.04059e-07
4.04059e-07
4.04061e-07
4.05093e-07
4.04396e-07
4.08568e-07
4.0406e-07
4.04011e-07
4.04007e-07
4.04007e-07
4.04011e-07
4.0406e-07
3.99059e-07
4.03183e-07
4.07561e-07
4.09166e-07
4.04058e-07
4.04007e-07
4.04005e-07
4.04006e-07
4.04007e-07
4.04058e-07
3.96863e-07
4.03321e-07
4.07084e-07
4.0941e-07
4.0406e-07
4.04007e-07
4.04005e-07
4.04006e-07
4.04008e-07
4.04058e-07
3.96881e-07
4.03564e-07
4.08167e-07
4.04061e-07
4.04011e-07
4.04007e-07
4.04007e-07
4.04012e-07
4.04061e-07
3.97356e-07
4.00197e-07
4.06816e-07
4.05091e-07
4.04061e-07
4.04059e-07
4.04058e-07
4.0406e-07
3.93239e-07
4.00845e-07
4.04186e-07
4.07162e-07
4.04397e-07
3.99058e-07
3.96859e-07
3.96875e-07
3.97349e-07
4.00841e-07
4.00193e-07
4.03173e-07
4.0332e-07
4.03562e-07
4.00197e-07
4.04189e-07
4.03358e-07
4.0288e-07
4.04844e-07
4.04375e-07
4.04981e-07
4.05221e-07
4.03955e-07
4.02612e-07
4.02956e-07
4.04843e-07
4.07622e-07
3.99859e-07
3.99865e-07
3.99864e-07
3.9986e-07
4.00884e-07
4.00186e-07
4.04373e-07
3.99863e-07
3.99844e-07
3.99845e-07
3.99845e-07
3.99845e-07
3.99864e-07
3.94849e-07
3.9897e-07
4.03358e-07
4.04983e-07
3.99865e-07
3.99843e-07
3.99843e-07
3.99844e-07
3.99843e-07
3.99863e-07
3.92648e-07
3.99114e-07
4.0288e-07
4.05219e-07
3.99863e-07
3.99843e-07
3.99843e-07
3.99844e-07
3.99843e-07
3.99863e-07
3.92675e-07
3.9936e-07
4.03955e-07
3.99863e-07
3.99845e-07
3.99844e-07
3.99845e-07
3.99846e-07
3.99862e-07
3.93156e-07
3.95989e-07
4.0261e-07
4.00883e-07
3.99862e-07
3.99863e-07
3.99862e-07
3.99861e-07
3.89025e-07
3.96646e-07
3.99977e-07
4.02954e-07
4.00184e-07
3.9485e-07
3.92648e-07
3.92675e-07
3.93151e-07
3.96638e-07
3.9598e-07
3.9896e-07
3.99116e-07
3.9936e-07
3.95986e-07
3.99981e-07
3.99163e-07
3.98684e-07
4.00647e-07
4.00179e-07
4.0079e-07
4.01025e-07
3.99755e-07
3.98413e-07
3.98757e-07
4.00645e-07
4.03429e-07
3.95666e-07
3.95664e-07
3.95664e-07
3.95666e-07
3.96685e-07
3.95988e-07
4.00177e-07
3.95665e-07
3.9566e-07
3.95659e-07
3.95659e-07
3.95662e-07
3.95666e-07
3.90655e-07
3.94774e-07
3.99161e-07
4.00789e-07
3.95664e-07
3.9566e-07
3.95659e-07
3.95659e-07
3.9566e-07
3.95665e-07
3.88451e-07
3.9492e-07
3.98684e-07
4.01025e-07
3.95665e-07
3.95659e-07
3.95659e-07
3.95659e-07
3.9566e-07
3.95666e-07
3.8848e-07
3.95165e-07
3.99756e-07
3.95666e-07
3.95661e-07
3.9566e-07
3.9566e-07
3.95661e-07
3.95666e-07
3.88964e-07
3.91791e-07
3.98412e-07
3.96684e-07
3.95665e-07
3.95664e-07
3.95665e-07
3.95667e-07
3.84824e-07
3.92445e-07
3.95777e-07
3.98754e-07
3.95984e-07
3.90652e-07
3.88446e-07
3.88474e-07
3.88955e-07
3.92439e-07
3.91782e-07
3.94763e-07
3.94916e-07
3.95164e-07
3.91787e-07
3.95781e-07
3.94965e-07
3.94486e-07
3.96449e-07
3.95981e-07
3.96593e-07
3.9683e-07
3.95558e-07
3.94216e-07
3.94559e-07
3.96447e-07
3.99235e-07
3.91468e-07
3.91469e-07
3.91469e-07
3.9147e-07
3.92486e-07
3.91789e-07
3.95981e-07
3.91471e-07
3.91466e-07
3.91465e-07
3.91465e-07
3.91466e-07
3.91467e-07
3.86455e-07
3.90575e-07
3.94964e-07
3.96594e-07
3.91469e-07
3.91464e-07
3.91465e-07
3.91465e-07
3.91466e-07
3.91467e-07
3.8425e-07
3.90722e-07
3.94486e-07
3.9683e-07
3.91469e-07
3.91467e-07
3.91467e-07
3.91466e-07
3.91466e-07
3.91468e-07
3.84281e-07
3.90966e-07
3.95559e-07
3.91467e-07
3.91463e-07
3.91463e-07
3.91464e-07
3.91465e-07
3.91469e-07
3.84766e-07
3.87593e-07
3.94215e-07
3.92484e-07
3.91471e-07
3.9147e-07
3.9147e-07
3.91471e-07
3.80627e-07
3.88247e-07
3.91579e-07
3.94557e-07
3.91786e-07
3.86455e-07
3.84248e-07
3.84276e-07
3.84757e-07
3.88241e-07
3.87583e-07
3.90567e-07
3.90719e-07
3.90966e-07
3.87591e-07
3.91585e-07
3.90766e-07
3.90288e-07
3.9225e-07
3.91785e-07
3.92398e-07
3.92632e-07
3.91358e-07
3.90017e-07
3.9036e-07
3.92249e-07
3.95037e-07
3.87271e-07
3.87271e-07
3.8727e-07
3.8727e-07
3.88286e-07
3.8759e-07
3.91783e-07
3.8727e-07
3.87268e-07
3.87268e-07
3.87269e-07
3.87269e-07
3.8727e-07
3.82256e-07
3.86376e-07
3.90765e-07
3.92397e-07
3.8727e-07
3.8727e-07
3.87269e-07
3.8727e-07
3.87269e-07
3.87271e-07
3.80051e-07
3.86523e-07
3.90288e-07
3.92633e-07
3.8727e-07
3.87268e-07
3.87268e-07
3.8727e-07
3.87267e-07
3.8727e-07
3.80082e-07
3.86767e-07
3.91359e-07
3.87272e-07
3.87269e-07
3.87269e-07
3.8727e-07
3.87269e-07
3.87272e-07
3.80568e-07
3.83394e-07
3.90016e-07
3.88283e-07
3.8727e-07
3.8727e-07
3.8727e-07
3.8727e-07
3.76429e-07
3.84048e-07
3.8738e-07
3.90358e-07
3.87586e-07
3.82255e-07
3.80045e-07
3.80077e-07
3.80558e-07
3.84042e-07
3.83383e-07
3.86368e-07
3.86521e-07
3.86767e-07
3.83391e-07
3.87385e-07
3.86568e-07
3.86089e-07
3.88054e-07
3.87588e-07
3.88199e-07
3.88433e-07
3.87159e-07
3.8582e-07
3.86161e-07
3.8805e-07
3.90836e-07
3.83071e-07
3.83071e-07
3.83071e-07
3.8307e-07
3.84087e-07
3.83391e-07
3.87584e-07
3.83071e-07
3.83072e-07
3.83071e-07
3.83071e-07
3.83072e-07
3.83071e-07
3.78059e-07
3.82178e-07
3.86567e-07
3.88198e-07
3.83071e-07
3.83071e-07
3.83071e-07
3.83071e-07
3.83071e-07
3.83071e-07
3.75854e-07
3.82325e-07
3.86089e-07
3.88434e-07
3.83071e-07
3.83071e-07
3.83071e-07
3.83071e-07
3.83071e-07
3.83071e-07
3.75885e-07
3.8257e-07
3.87159e-07
3.83071e-07
3.83072e-07
3.83071e-07
3.83071e-07
3.83072e-07
3.83071e-07
3.7637e-07
3.79196e-07
3.85818e-07
3.84084e-07
3.83071e-07
3.83071e-07
3.83071e-07
3.83071e-07
3.72231e-07
3.7985e-07
3.83181e-07
3.86159e-07
3.83388e-07
3.78057e-07
3.75847e-07
3.75879e-07
3.76361e-07
3.79844e-07
3.79185e-07
3.82169e-07
3.82322e-07
3.82569e-07
3.79192e-07
3.83186e-07
3.82369e-07
3.8189e-07
3.83851e-07
3.8339e-07
3.84001e-07
3.84235e-07
3.8296e-07
3.81619e-07
3.8196e-07
3.83851e-07
3.86638e-07
3.78873e-07
3.78873e-07
3.78872e-07
3.78872e-07
3.79888e-07
3.79191e-07
3.83386e-07
3.78872e-07
3.78873e-07
3.78873e-07
3.78873e-07
3.78873e-07
3.78873e-07
3.7386e-07
3.77979e-07
3.82368e-07
3.84e-07
3.78873e-07
3.78873e-07
3.78873e-07
3.78873e-07
3.78873e-07
3.78873e-07
3.71656e-07
3.78127e-07
3.81891e-07
3.84236e-07
3.78873e-07
3.78873e-07
3.78873e-07
3.78873e-07
3.78873e-07
3.78873e-07
3.71687e-07
3.78372e-07
3.82961e-07
3.78873e-07
3.78873e-07
3.78873e-07
3.78873e-07
3.78873e-07
3.78873e-07
3.72172e-07
3.74997e-07
3.81619e-07
3.79885e-07
3.78873e-07
3.78872e-07
3.78872e-07
3.78873e-07
3.68032e-07
3.75651e-07
3.78982e-07
3.8196e-07
3.79189e-07
3.73858e-07
3.71649e-07
3.71681e-07
3.72162e-07
3.75645e-07
3.74986e-07
3.77971e-07
3.78124e-07
3.7837e-07
3.74994e-07
3.78988e-07
3.78171e-07
3.77692e-07
3.79656e-07
3.79192e-07
3.79803e-07
3.80037e-07
3.78764e-07
3.77419e-07
3.77761e-07
3.79653e-07
3.82442e-07
3.74674e-07
3.74675e-07
3.74675e-07
3.74674e-07
3.75689e-07
3.74993e-07
3.79188e-07
3.74674e-07
3.74674e-07
3.74674e-07
3.74674e-07
3.74674e-07
3.74674e-07
3.69661e-07
3.73781e-07
3.7817e-07
3.79802e-07
3.74674e-07
3.74674e-07
3.74675e-07
3.74675e-07
3.74674e-07
3.74675e-07
3.67457e-07
3.73928e-07
3.77692e-07
3.80038e-07
3.74675e-07
3.74674e-07
3.74674e-07
3.74674e-07
3.74674e-07
3.74675e-07
3.67489e-07
3.74173e-07
3.78763e-07
3.74674e-07
3.74674e-07
3.74675e-07
3.74675e-07
3.74674e-07
3.74675e-07
3.67973e-07
3.70798e-07
3.77421e-07
3.75687e-07
3.74675e-07
3.74675e-07
3.74675e-07
3.74675e-07
3.63833e-07
3.71453e-07
3.74784e-07
3.77762e-07
3.74991e-07
3.69659e-07
3.6745e-07
3.67481e-07
3.67963e-07
3.71447e-07
3.70788e-07
3.73772e-07
3.73926e-07
3.74171e-07
3.70795e-07
3.74789e-07
3.73972e-07
3.73493e-07
3.75455e-07
3.74993e-07
3.75604e-07
3.75838e-07
3.74565e-07
3.73221e-07
3.73563e-07
3.75455e-07
3.78242e-07
3.70476e-07
3.70476e-07
3.70476e-07
3.70476e-07
3.7149e-07
3.70794e-07
3.74989e-07
3.70476e-07
3.70476e-07
3.70476e-07
3.70476e-07
3.70476e-07
3.70476e-07
3.65463e-07
3.69582e-07
3.73971e-07
3.75603e-07
3.70476e-07
3.70476e-07
3.70476e-07
3.70476e-07
3.70476e-07
3.70476e-07
3.63259e-07
3.69729e-07
3.73493e-07
3.75839e-07
3.70476e-07
3.70476e-07
3.70476e-07
3.70476e-07
3.70476e-07
3.70476e-07
3.6329e-07
3.69974e-07
3.74564e-07
3.70476e-07
3.70476e-07
3.70476e-07
3.70476e-07
3.70476e-07
3.70476e-07
3.63774e-07
3.66599e-07
3.73222e-07
3.71488e-07
3.70476e-07
3.70476e-07
3.70476e-07
3.70476e-07
3.59635e-07
3.67254e-07
3.70585e-07
3.73563e-07
3.70792e-07
3.65461e-07
3.63251e-07
3.63282e-07
3.63765e-07
3.67248e-07
3.66589e-07
3.69573e-07
3.69727e-07
3.69973e-07
3.66596e-07
3.7059e-07
3.69774e-07
3.69295e-07
3.71257e-07
3.70795e-07
3.71406e-07
3.7164e-07
3.70366e-07
3.69024e-07
3.69366e-07
3.71256e-07
3.74044e-07
3.66277e-07
3.66277e-07
3.66277e-07
3.66277e-07
3.67292e-07
3.66596e-07
3.7079e-07
3.66277e-07
3.66277e-07
3.66277e-07
3.66277e-07
3.66277e-07
3.66277e-07
3.61265e-07
3.65384e-07
3.69772e-07
3.71405e-07
3.66277e-07
3.66277e-07
3.66277e-07
3.66277e-07
3.66277e-07
3.66277e-07
3.59061e-07
3.65531e-07
3.69295e-07
3.7164e-07
3.66277e-07
3.66277e-07
3.66277e-07
3.66277e-07
3.66277e-07
3.66277e-07
3.59092e-07
3.65776e-07
3.70365e-07
3.66277e-07
3.66277e-07
3.66277e-07
3.66277e-07
3.66277e-07
3.66277e-07
3.59576e-07
3.62401e-07
3.69023e-07
3.6729e-07
3.66277e-07
3.66277e-07
3.66277e-07
3.66277e-07
3.55436e-07
3.63056e-07
3.66387e-07
3.69365e-07
3.66593e-07
3.61262e-07
3.59053e-07
3.59084e-07
3.59566e-07
3.6305e-07
3.62391e-07
3.65375e-07
3.65529e-07
3.65774e-07
3.62398e-07
3.66392e-07
3.65575e-07
3.65096e-07
3.67058e-07
3.66596e-07
3.67207e-07
3.67441e-07
3.66168e-07
3.64824e-07
3.65166e-07
3.67057e-07
3.69844e-07
3.62079e-07
3.62079e-07
3.62079e-07
3.62079e-07
3.63093e-07
3.62398e-07
3.66592e-07
3.62079e-07
3.62079e-07
3.62079e-07
3.62079e-07
3.62079e-07
3.62079e-07
3.57066e-07
3.61186e-07
3.65574e-07
3.67206e-07
3.62079e-07
3.62079e-07
3.62079e-07
3.62079e-07
3.62079e-07
3.62079e-07
3.54862e-07
3.61333e-07
3.65097e-07
3.67442e-07
3.62079e-07
3.62079e-07
3.62079e-07
3.62079e-07
3.62079e-07
3.62079e-07
3.54893e-07
3.61578e-07
3.66167e-07
3.62079e-07
3.62079e-07
3.62079e-07
3.62079e-07
3.62079e-07
3.62079e-07
3.55378e-07
3.58203e-07
3.64825e-07
3.63091e-07
3.62079e-07
3.62079e-07
3.62079e-07
3.62079e-07
3.51238e-07
3.58857e-07
3.62188e-07
3.65167e-07
3.62395e-07
3.57063e-07
3.54853e-07
3.54884e-07
3.55367e-07
3.58851e-07
3.58192e-07
3.61176e-07
3.6133e-07
3.61576e-07
3.58199e-07
3.62193e-07
3.61376e-07
3.60898e-07
3.62859e-07
3.62397e-07
3.63008e-07
3.63242e-07
3.61968e-07
3.60627e-07
3.60967e-07
3.62859e-07
3.65646e-07
3.5788e-07
3.5788e-07
3.5788e-07
3.5788e-07
3.58894e-07
3.58198e-07
3.62393e-07
3.5788e-07
3.5788e-07
3.5788e-07
3.5788e-07
3.5788e-07
3.5788e-07
3.52867e-07
3.56987e-07
3.61375e-07
3.63007e-07
3.5788e-07
3.5788e-07
3.5788e-07
3.5788e-07
3.5788e-07
3.5788e-07
3.50663e-07
3.57134e-07
3.60898e-07
3.63243e-07
3.5788e-07
3.5788e-07
3.5788e-07
3.5788e-07
3.5788e-07
3.5788e-07
3.50694e-07
3.57379e-07
3.61968e-07
3.5788e-07
3.5788e-07
3.5788e-07
3.5788e-07
3.5788e-07
3.5788e-07
3.51179e-07
3.54004e-07
3.60626e-07
3.58892e-07
3.5788e-07
3.5788e-07
3.5788e-07
3.5788e-07
3.47039e-07
3.54658e-07
3.57989e-07
3.60967e-07
3.58196e-07
3.52865e-07
3.50655e-07
3.50686e-07
3.51169e-07
3.54652e-07
3.53993e-07
3.56978e-07
3.57131e-07
3.57378e-07
3.54e-07
3.57995e-07
3.57177e-07
3.56698e-07
3.58659e-07
3.58198e-07
3.58809e-07
3.59043e-07
3.57769e-07
3.56428e-07
3.56768e-07
3.58659e-07
3.61446e-07
3.5368e-07
3.5368e-07
3.5368e-07
3.5368e-07
3.54695e-07
3.54e-07
3.58194e-07
3.5368e-07
3.5368e-07
3.5368e-07
3.5368e-07
3.5368e-07
3.5368e-07
3.48666e-07
3.52787e-07
3.57176e-07
3.58808e-07
3.5368e-07
3.5368e-07
3.5368e-07
3.5368e-07
3.53681e-07
3.5368e-07
3.46464e-07
3.52934e-07
3.56698e-07
3.59044e-07
3.5368e-07
3.5368e-07
3.5368e-07
3.53681e-07
3.53681e-07
3.53681e-07
3.46495e-07
3.53179e-07
3.57768e-07
3.5368e-07
3.53681e-07
3.53681e-07
3.53681e-07
3.53681e-07
3.53681e-07
3.46979e-07
3.49804e-07
3.56427e-07
3.54693e-07
3.53681e-07
3.53681e-07
3.53681e-07
3.53681e-07
3.42839e-07
3.50459e-07
3.5379e-07
3.56768e-07
3.53997e-07
3.48666e-07
3.46457e-07
3.46489e-07
3.4697e-07
3.50453e-07
3.49794e-07
3.52778e-07
3.52932e-07
3.53179e-07
3.49801e-07
3.53795e-07
3.52978e-07
3.52499e-07
3.54461e-07
3.53999e-07
3.5461e-07
3.54844e-07
3.5357e-07
3.52228e-07
3.52569e-07
3.5446e-07
3.57248e-07
3.49482e-07
3.49482e-07
3.49482e-07
3.49482e-07
3.50496e-07
3.498e-07
3.53995e-07
3.49482e-07
3.49482e-07
3.49482e-07
3.49482e-07
3.49482e-07
3.49482e-07
3.44467e-07
3.48588e-07
3.52977e-07
3.54609e-07
3.49482e-07
3.49482e-07
3.49482e-07
3.49482e-07
3.49482e-07
3.49482e-07
3.42265e-07
3.48735e-07
3.52499e-07
3.54845e-07
3.49482e-07
3.49482e-07
3.49482e-07
3.49482e-07
3.49482e-07
3.49482e-07
3.42296e-07
3.4898e-07
3.5357e-07
3.49482e-07
3.49482e-07
3.49482e-07
3.49482e-07
3.49482e-07
3.49482e-07
3.4278e-07
3.45605e-07
3.52228e-07
3.50494e-07
3.49482e-07
3.49482e-07
3.49482e-07
3.49482e-07
3.3864e-07
3.4626e-07
3.49591e-07
3.52569e-07
3.49798e-07
3.44466e-07
3.42257e-07
3.42288e-07
3.4277e-07
3.46254e-07
3.45595e-07
3.48579e-07
3.48733e-07
3.48977e-07
3.45601e-07
3.49596e-07
3.4878e-07
3.48301e-07
3.50263e-07
3.49801e-07
3.50412e-07
3.50646e-07
3.49373e-07
3.4803e-07
3.48371e-07
3.50262e-07
3.5305e-07
3.45284e-07
3.45284e-07
3.45284e-07
3.45284e-07
3.46298e-07
3.45603e-07
3.49797e-07
3.45284e-07
3.45284e-07
3.45284e-07
3.45284e-07
3.45284e-07
3.45284e-07
3.4027e-07
3.4439e-07
3.48779e-07
3.50412e-07
3.45284e-07
3.45284e-07
3.45284e-07
3.45284e-07
3.45284e-07
3.45284e-07
3.38067e-07
3.44537e-07
3.48302e-07
3.50647e-07
3.45284e-07
3.45284e-07
3.45284e-07
3.45284e-07
3.45284e-07
3.45284e-07
3.38098e-07
3.44783e-07
3.49372e-07
3.45284e-07
3.45284e-07
3.45284e-07
3.45284e-07
3.45284e-07
3.45284e-07
3.38583e-07
3.41408e-07
3.4803e-07
3.46297e-07
3.45284e-07
3.45284e-07
3.45284e-07
3.45284e-07
3.34443e-07
3.42062e-07
3.45393e-07
3.48372e-07
3.456e-07
3.40269e-07
3.38062e-07
3.38093e-07
3.38574e-07
3.42056e-07
3.41397e-07
3.44382e-07
3.44536e-07
3.44781e-07
3.41402e-07
3.45399e-07
3.44583e-07
3.44105e-07
3.46066e-07
3.45605e-07
3.46215e-07
3.46449e-07
3.45176e-07
3.43833e-07
3.44176e-07
3.46066e-07
3.48853e-07
3.41087e-07
3.41087e-07
3.41087e-07
3.41087e-07
3.42103e-07
3.41406e-07
3.456e-07
3.41087e-07
3.41088e-07
3.41088e-07
3.41088e-07
3.41088e-07
3.41087e-07
3.36073e-07
3.40193e-07
3.44582e-07
3.46215e-07
3.41087e-07
3.41088e-07
3.41088e-07
3.41088e-07
3.41088e-07
3.41087e-07
3.3387e-07
3.40341e-07
3.44105e-07
3.46451e-07
3.41088e-07
3.41088e-07
3.41088e-07
3.41088e-07
3.41088e-07
3.41088e-07
3.33902e-07
3.40586e-07
3.45175e-07
3.41087e-07
3.41088e-07
3.41088e-07
3.41088e-07
3.41088e-07
3.41087e-07
3.34386e-07
3.37211e-07
3.43833e-07
3.421e-07
3.41087e-07
3.41088e-07
3.41088e-07
3.41088e-07
3.30246e-07
3.37866e-07
3.41196e-07
3.44175e-07
3.41403e-07
3.36073e-07
3.33865e-07
3.33896e-07
3.34376e-07
3.37859e-07
3.372e-07
3.40185e-07
3.40338e-07
3.40584e-07
3.37207e-07
3.41202e-07
3.40387e-07
3.39908e-07
3.41869e-07
3.41407e-07
3.42019e-07
3.42253e-07
3.40979e-07
3.39635e-07
3.39978e-07
3.41869e-07
3.44657e-07
3.36891e-07
3.36891e-07
3.36891e-07
3.36891e-07
3.37906e-07
3.37209e-07
3.41404e-07
3.36891e-07
3.36891e-07
3.36891e-07
3.36891e-07
3.36891e-07
3.36891e-07
3.31876e-07
3.35997e-07
3.40386e-07
3.42018e-07
3.36891e-07
3.36891e-07
3.36891e-07
3.36891e-07
3.36891e-07
3.36891e-07
3.29674e-07
3.36144e-07
3.39908e-07
3.42254e-07
3.36891e-07
3.36891e-07
3.36891e-07
3.36891e-07
3.36891e-07
3.36891e-07
3.29705e-07
3.36389e-07
3.40979e-07
3.36891e-07
3.36891e-07
3.36891e-07
3.36891e-07
3.36891e-07
3.36891e-07
3.30189e-07
3.33014e-07
3.39637e-07
3.37903e-07
3.36891e-07
3.36891e-07
3.36891e-07
3.36891e-07
3.26049e-07
3.33669e-07
3.36999e-07
3.39978e-07
3.37207e-07
3.31876e-07
3.29668e-07
3.29699e-07
3.30179e-07
3.33663e-07
3.33004e-07
3.35988e-07
3.36142e-07
3.36387e-07
3.33009e-07
3.37005e-07
3.3619e-07
3.35712e-07
3.37672e-07
3.37211e-07
3.37822e-07
3.38056e-07
3.36783e-07
3.35439e-07
3.35782e-07
3.37672e-07
3.4046e-07
3.32695e-07
3.32695e-07
3.32695e-07
3.32695e-07
3.3371e-07
3.33013e-07
3.37207e-07
3.32695e-07
3.32695e-07
3.32695e-07
3.32695e-07
3.32695e-07
3.32695e-07
3.2768e-07
3.318e-07
3.36189e-07
3.37822e-07
3.32695e-07
3.32695e-07
3.32695e-07
3.32695e-07
3.32695e-07
3.32695e-07
3.25477e-07
3.31947e-07
3.35712e-07
3.38057e-07
3.32695e-07
3.32695e-07
3.32695e-07
3.32695e-07
3.32695e-07
3.32695e-07
3.25508e-07
3.32193e-07
3.36782e-07
3.32695e-07
3.32695e-07
3.32695e-07
3.32695e-07
3.32695e-07
3.32695e-07
3.25993e-07
3.28817e-07
3.3544e-07
3.33707e-07
3.32695e-07
3.32695e-07
3.32695e-07
3.32695e-07
3.21853e-07
3.29472e-07
3.32803e-07
3.35781e-07
3.3301e-07
3.27679e-07
3.25472e-07
3.25503e-07
3.25983e-07
3.29466e-07
3.28807e-07
3.31791e-07
3.31945e-07
3.3219e-07
3.28813e-07
3.32808e-07
3.31994e-07
3.31516e-07
3.33477e-07
3.33015e-07
3.33627e-07
3.33861e-07
3.32587e-07
3.31243e-07
3.31586e-07
3.33477e-07
3.36264e-07
3.28499e-07
3.28499e-07
3.28499e-07
3.28499e-07
3.29515e-07
3.28818e-07
3.33012e-07
3.28499e-07
3.28499e-07
3.28499e-07
3.28499e-07
3.28499e-07
3.28499e-07
3.23485e-07
3.27605e-07
3.31993e-07
3.33626e-07
3.28499e-07
3.28499e-07
3.28499e-07
3.28499e-07
3.28499e-07
3.28499e-07
3.21282e-07
3.27752e-07
3.31516e-07
3.33862e-07
3.28499e-07
3.28499e-07
3.28499e-07
3.28499e-07
3.28499e-07
3.28499e-07
3.21313e-07
3.27997e-07
3.32586e-07
3.28499e-07
3.28499e-07
3.28499e-07
3.28499e-07
3.28499e-07
3.28499e-07
3.21797e-07
3.24622e-07
3.31244e-07
3.29511e-07
3.28499e-07
3.28499e-07
3.28499e-07
3.28499e-07
3.17657e-07
3.25277e-07
3.28607e-07
3.31586e-07
3.28815e-07
3.23484e-07
3.21276e-07
3.21307e-07
3.21787e-07
3.25271e-07
3.24611e-07
3.27596e-07
3.2775e-07
3.27995e-07
3.24617e-07
3.28612e-07
3.27798e-07
3.2732e-07
3.2928e-07
3.28819e-07
3.29431e-07
3.29665e-07
3.28391e-07
3.27048e-07
3.2739e-07
3.29281e-07
3.32068e-07
3.24303e-07
3.24303e-07
3.24303e-07
3.24303e-07
3.25319e-07
3.24621e-07
3.28816e-07
3.24303e-07
3.24303e-07
3.24303e-07
3.24303e-07
3.24303e-07
3.24303e-07
3.19288e-07
3.23409e-07
3.27798e-07
3.2943e-07
3.24303e-07
3.24303e-07
3.24303e-07
3.24303e-07
3.24303e-07
3.24303e-07
3.17086e-07
3.23556e-07
3.2732e-07
3.29666e-07
3.24303e-07
3.24303e-07
3.24303e-07
3.24303e-07
3.24303e-07
3.24303e-07
3.17117e-07
3.23801e-07
3.28391e-07
3.24303e-07
3.24303e-07
3.24303e-07
3.24303e-07
3.24303e-07
3.24303e-07
3.17601e-07
3.20426e-07
3.27049e-07
3.25315e-07
3.24303e-07
3.24303e-07
3.24303e-07
3.24303e-07
3.13461e-07
3.21081e-07
3.24411e-07
3.2739e-07
3.24619e-07
3.19288e-07
3.1708e-07
3.17111e-07
3.17592e-07
3.21075e-07
3.20416e-07
3.234e-07
3.23554e-07
3.23799e-07
3.20422e-07
3.24417e-07
3.23602e-07
3.23124e-07
3.25084e-07
3.24623e-07
3.25235e-07
3.25469e-07
3.24195e-07
3.22851e-07
3.23194e-07
3.25085e-07
3.27872e-07
3.20107e-07
3.20107e-07
3.20107e-07
3.20107e-07
3.21123e-07
3.20425e-07
3.2462e-07
3.20107e-07
3.20107e-07
3.20107e-07
3.20107e-07
3.20107e-07
3.20107e-07
3.15092e-07
3.19213e-07
3.23601e-07
3.25234e-07
3.20107e-07
3.20107e-07
3.20107e-07
3.20107e-07
3.20107e-07
3.20107e-07
3.1289e-07
3.1936e-07
3.23124e-07
3.2547e-07
3.20107e-07
3.20107e-07
3.20107e-07
3.20107e-07
3.20107e-07
3.20107e-07
3.12921e-07
3.19605e-07
3.24194e-07
3.20107e-07
3.20107e-07
3.20107e-07
3.20107e-07
3.20107e-07
3.20107e-07
3.13405e-07
3.1623e-07
3.22852e-07
3.21119e-07
3.20107e-07
3.20107e-07
3.20107e-07
3.20107e-07
3.09265e-07
3.16885e-07
3.20215e-07
3.23194e-07
3.20422e-07
3.15092e-07
3.12884e-07
3.12915e-07
3.13395e-07
3.16878e-07
3.16219e-07
3.19204e-07
3.19357e-07
3.19603e-07
3.16225e-07
3.2022e-07
3.19406e-07
3.18928e-07
3.20889e-07
3.20427e-07
3.21039e-07
3.21273e-07
3.19999e-07
3.18655e-07
3.18998e-07
3.20889e-07
3.23676e-07
3.15911e-07
3.15911e-07
3.15911e-07
3.15911e-07
3.16927e-07
3.1623e-07
3.20424e-07
3.15911e-07
3.15911e-07
3.15911e-07
3.15911e-07
3.15911e-07
3.15911e-07
3.10896e-07
3.15017e-07
3.19405e-07
3.21038e-07
3.15911e-07
3.15911e-07
3.15911e-07
3.15911e-07
3.15911e-07
3.15911e-07
3.08694e-07
3.15164e-07
3.18928e-07
3.21274e-07
3.15911e-07
3.15911e-07
3.15911e-07
3.15911e-07
3.15911e-07
3.15911e-07
3.08725e-07
3.15409e-07
3.19998e-07
3.15911e-07
3.15911e-07
3.15911e-07
3.15911e-07
3.15911e-07
3.15911e-07
3.09209e-07
3.12034e-07
3.18656e-07
3.16923e-07
3.15911e-07
3.15911e-07
3.1591e-07
3.15911e-07
3.05069e-07
3.12689e-07
3.16019e-07
3.18998e-07
3.16226e-07
3.10895e-07
3.08688e-07
3.08719e-07
3.09199e-07
3.12682e-07
3.12023e-07
3.15007e-07
3.15161e-07
3.15406e-07
3.12029e-07
3.16024e-07
3.15211e-07
3.14732e-07
3.16694e-07
3.16232e-07
3.16844e-07
3.17077e-07
3.15804e-07
3.14459e-07
3.14803e-07
3.16693e-07
3.19481e-07
3.11716e-07
3.11716e-07
3.11716e-07
3.11716e-07
3.12731e-07
3.12034e-07
3.16228e-07
3.11716e-07
3.11716e-07
3.11716e-07
3.11716e-07
3.11716e-07
3.11716e-07
3.06701e-07
3.10822e-07
3.1521e-07
3.16842e-07
3.11716e-07
3.11716e-07
3.11716e-07
3.11716e-07
3.11716e-07
3.11716e-07
3.04498e-07
3.10968e-07
3.14733e-07
3.17078e-07
3.11716e-07
3.11716e-07
3.11716e-07
3.11716e-07
3.11716e-07
3.11716e-07
3.0453e-07
3.11214e-07
3.15803e-07
3.11716e-07
3.11716e-07
3.11716e-07
3.11716e-07
3.11716e-07
3.11716e-07
3.05014e-07
3.07838e-07
3.14461e-07
3.12728e-07
3.11716e-07
3.11716e-07
3.11716e-07
3.11716e-07
3.00874e-07
3.08494e-07
3.11824e-07
3.14802e-07
3.12031e-07
3.06699e-07
3.04492e-07
3.04522e-07
3.05004e-07
3.08487e-07
3.07828e-07
3.10812e-07
3.10966e-07
3.11211e-07
3.07834e-07
3.11829e-07
3.11016e-07
3.10537e-07
3.12499e-07
3.12037e-07
3.12649e-07
3.12882e-07
3.11608e-07
3.10265e-07
3.10608e-07
3.12499e-07
3.15287e-07
3.07521e-07
3.07521e-07
3.07521e-07
3.07521e-07
3.08533e-07
3.07839e-07
3.12034e-07
3.07521e-07
3.07521e-07
3.07521e-07
3.07521e-07
3.07521e-07
3.07521e-07
3.02506e-07
3.06627e-07
3.11015e-07
3.12648e-07
3.07521e-07
3.07521e-07
3.07521e-07
3.07521e-07
3.07521e-07
3.07521e-07
3.00304e-07
3.06774e-07
3.10538e-07
3.12883e-07
3.07521e-07
3.07521e-07
3.07521e-07
3.07521e-07
3.07521e-07
3.07521e-07
3.00335e-07
3.07019e-07
3.11608e-07
3.07521e-07
3.07521e-07
3.07521e-07
3.07521e-07
3.07521e-07
3.07521e-07
3.00819e-07
3.03644e-07
3.10266e-07
3.08533e-07
3.07521e-07
3.07521e-07
3.07521e-07
3.07521e-07
2.96679e-07
3.04299e-07
3.07629e-07
3.10608e-07
3.07836e-07
3.02504e-07
3.00297e-07
3.00328e-07
3.00809e-07
3.04292e-07
3.03633e-07
3.06618e-07
3.06772e-07
3.07017e-07
3.03639e-07
3.07634e-07
3.06821e-07
3.06342e-07
3.08303e-07
3.07842e-07
3.08454e-07
3.08687e-07
3.07414e-07
3.06069e-07
3.06412e-07
3.08303e-07
3.11091e-07
3.03325e-07
3.03325e-07
3.03325e-07
3.03325e-07
3.04339e-07
3.03644e-07
3.07838e-07
3.03325e-07
3.03325e-07
3.03325e-07
3.03325e-07
3.03325e-07
3.03326e-07
2.98311e-07
3.02432e-07
3.0682e-07
3.08452e-07
3.03325e-07
3.03325e-07
3.03325e-07
3.03325e-07
3.03325e-07
3.03325e-07
2.96108e-07
3.02578e-07
3.06342e-07
3.08687e-07
3.03325e-07
3.03325e-07
3.03325e-07
3.03325e-07
3.03325e-07
3.03325e-07
2.96139e-07
3.02824e-07
3.07413e-07
3.03325e-07
3.03325e-07
3.03325e-07
3.03325e-07
3.03325e-07
3.03325e-07
2.96624e-07
2.99449e-07
3.06071e-07
3.04338e-07
3.03325e-07
3.03325e-07
3.03325e-07
3.03325e-07
2.92484e-07
3.00103e-07
3.03434e-07
3.06412e-07
3.03641e-07
2.98309e-07
2.96103e-07
2.96133e-07
2.96614e-07
3.00097e-07
2.99438e-07
3.02422e-07
3.02576e-07
3.02822e-07
2.99444e-07
3.03439e-07
3.02625e-07
3.02147e-07
3.04107e-07
3.03645e-07
3.04256e-07
3.04491e-07
3.03217e-07
3.01873e-07
3.02217e-07
3.04107e-07
3.06894e-07
2.99129e-07
2.99129e-07
2.99129e-07
2.99129e-07
3.00143e-07
2.99448e-07
3.03642e-07
2.99129e-07
2.99129e-07
2.99129e-07
2.99129e-07
2.99129e-07
2.99129e-07
2.94115e-07
2.98236e-07
3.02624e-07
3.04256e-07
2.99129e-07
2.99129e-07
2.99129e-07
2.99129e-07
2.99129e-07
2.99129e-07
2.91912e-07
2.98382e-07
3.02147e-07
3.04491e-07
2.99129e-07
2.99129e-07
2.99129e-07
2.99129e-07
2.99129e-07
2.99129e-07
2.91943e-07
2.98628e-07
3.03217e-07
2.99129e-07
2.99129e-07
2.99129e-07
2.99129e-07
2.99129e-07
2.99129e-07
2.92428e-07
2.95253e-07
3.01875e-07
3.00141e-07
2.99129e-07
2.99129e-07
2.99129e-07
2.99129e-07
2.88288e-07
2.95907e-07
2.99238e-07
3.02216e-07
2.99445e-07
2.94113e-07
2.91907e-07
2.91937e-07
2.92417e-07
2.95901e-07
2.95242e-07
2.98226e-07
2.9838e-07
2.98626e-07
2.95248e-07
2.99243e-07
2.98427e-07
2.97949e-07
2.99909e-07
2.99447e-07
3.00058e-07
3.00293e-07
2.99019e-07
2.97675e-07
2.98019e-07
2.9991e-07
3.02696e-07
2.94931e-07
2.94931e-07
2.94931e-07
2.94931e-07
2.95945e-07
2.9525e-07
2.99444e-07
2.94931e-07
2.94931e-07
2.94931e-07
2.94931e-07
2.94931e-07
2.94931e-07
2.89917e-07
2.94038e-07
2.98426e-07
3.00058e-07
2.94931e-07
2.94931e-07
2.94931e-07
2.94931e-07
2.94931e-07
2.94931e-07
2.87714e-07
2.94184e-07
2.97949e-07
3.00293e-07
2.94931e-07
2.94931e-07
2.94931e-07
2.94931e-07
2.94931e-07
2.94931e-07
2.87745e-07
2.9443e-07
2.99019e-07
2.94931e-07
2.94931e-07
2.94931e-07
2.94931e-07
2.94931e-07
2.94931e-07
2.8823e-07
2.91055e-07
2.97677e-07
2.95943e-07
2.94931e-07
2.94931e-07
2.94931e-07