/*--------------------------------*- C++ -*----------------------------------*\
| =========                 |                                                 |
| \\      /  F ield         | OpenFOAM: The Open Source CFD Toolbox           |
|  \\    /   O peration     | Version:  v2012                                 |
|   \\  /    A nd           | Website:  www.openfoam.com                      |
|    \\/     M anipulation  |                                                 |
\*---------------------------------------------------------------------------*/
FoamFile
{
    version     2.0;
    format      ascii;
    class       volScalarField;
    location    "0.105";
    object      p;
}
// * * * * * * * * * * * * * * * * * * * * * * * * * * * * * * * * * * * * * //

dimensions      [0 2 -2 0 0 0 0];


internalField   nonuniform List<scalar> 
189320
(
-2.49901e-06
-2.48666e-06
-2.505e-06
-2.51003e-06
-2.52446e-06
-2.5286e-06
-2.5191e-06
-2.51547e-06
-2.50999e-06
-2.50499e-06
-2.52513e-06
-2.52712e-06
-2.53246e-06
-2.53355e-06
-2.53003e-06
-2.52623e-06
-2.51329e-06
-2.50999e-06
-2.52712e-06
-2.53471e-06
-2.5382e-06
-2.53888e-06
-2.53675e-06
-2.53091e-06
-2.52527e-06
-2.51182e-06
-2.4993e-06
-2.52446e-06
-2.53246e-06
-2.5382e-06
-2.54031e-06
-2.54065e-06
-2.53955e-06
-2.53596e-06
-2.52722e-06
-2.51485e-06
-2.48688e-06
-2.52866e-06
-2.53356e-06
-2.53888e-06
-2.54065e-06
-2.54095e-06
-2.54005e-06
-2.537e-06
-2.5292e-06
-2.5138e-06
-2.51913e-06
-2.53003e-06
-2.53674e-06
-2.53954e-06
-2.54005e-06
-2.53845e-06
-2.53391e-06
-2.52602e-06
-2.49998e-06
-2.51551e-06
-2.52622e-06
-2.53089e-06
-2.53593e-06
-2.53698e-06
-2.5339e-06
-2.52705e-06
-2.52383e-06
-2.51115e-06
-2.50998e-06
-2.51326e-06
-2.52524e-06
-2.52717e-06
-2.52915e-06
-2.52599e-06
-2.52381e-06
-2.52097e-06
-2.51176e-06
-2.51479e-06
-2.51359e-06
-2.4999e-06
-2.51109e-06
-2.51901e-06
-2.51993e-06
-2.51504e-06
-2.50866e-06
-2.50797e-06
-2.50459e-06
-2.50805e-06
-2.52379e-06
-2.52096e-06
-2.51506e-06
-2.49496e-06
-2.51023e-06
-2.51537e-06
-2.5154e-06
-2.51027e-06
-2.51866e-06
-2.52283e-06
-2.50865e-06
-2.51025e-06
-2.52732e-06
-2.52812e-06
-2.52816e-06
-2.52732e-06
-2.51021e-06
-2.54055e-06
-2.53202e-06
-2.51901e-06
-2.50797e-06
-2.51538e-06
-2.52815e-06
-2.52803e-06
-2.52804e-06
-2.52814e-06
-2.51543e-06
-2.54209e-06
-2.53229e-06
-2.51993e-06
-2.50457e-06
-2.51537e-06
-2.52815e-06
-2.52804e-06
-2.52804e-06
-2.52812e-06
-2.5154e-06
-2.54284e-06
-2.52451e-06
-2.50804e-06
-2.51026e-06
-2.52731e-06
-2.52813e-06
-2.52816e-06
-2.52731e-06
-2.51023e-06
-2.54273e-06
-2.53845e-06
-2.52375e-06
-2.51864e-06
-2.51018e-06
-2.51535e-06
-2.51539e-06
-2.51023e-06
-2.56381e-06
-2.53479e-06
-2.52741e-06
-2.52091e-06
-2.52281e-06
-2.54052e-06
-2.54208e-06
-2.54284e-06
-2.54275e-06
-2.53484e-06
-2.54079e-06
-2.53199e-06
-2.53226e-06
-2.52449e-06
-2.53845e-06
-2.5274e-06
-2.49685e-06
-2.49779e-06
-2.49176e-06
-2.4848e-06
-2.48282e-06
-2.48068e-06
-2.48441e-06
-2.50064e-06
-2.4979e-06
-2.49177e-06
-2.47065e-06
-2.48429e-06
-2.48532e-06
-2.48535e-06
-2.48431e-06
-2.49656e-06
-2.49726e-06
-2.4848e-06
-2.48428e-06
-2.49171e-06
-2.49258e-06
-2.49263e-06
-2.49171e-06
-2.48429e-06
-2.51691e-06
-2.51007e-06
-2.49684e-06
-2.48282e-06
-2.48531e-06
-2.49262e-06
-2.49318e-06
-2.4932e-06
-2.4926e-06
-2.48535e-06
-2.52455e-06
-2.50963e-06
-2.49776e-06
-2.48065e-06
-2.4853e-06
-2.49262e-06
-2.49319e-06
-2.4932e-06
-2.4926e-06
-2.48535e-06
-2.52572e-06
-2.50016e-06
-2.4844e-06
-2.48429e-06
-2.4917e-06
-2.49259e-06
-2.49263e-06
-2.49171e-06
-2.4843e-06
-2.52327e-06
-2.51835e-06
-2.50059e-06
-2.49654e-06
-2.48425e-06
-2.4853e-06
-2.48534e-06
-2.48429e-06
-2.53419e-06
-2.50999e-06
-2.50569e-06
-2.49785e-06
-2.49723e-06
-2.51689e-06
-2.5245e-06
-2.52569e-06
-2.52324e-06
-2.51002e-06
-2.51804e-06
-2.51004e-06
-2.50962e-06
-2.50013e-06
-2.51832e-06
-2.50568e-06
-2.47007e-06
-2.47088e-06
-2.46562e-06
-2.45797e-06
-2.45569e-06
-2.45347e-06
-2.45761e-06
-2.47423e-06
-2.4719e-06
-2.46562e-06
-2.44336e-06
-2.45745e-06
-2.45767e-06
-2.45768e-06
-2.45746e-06
-2.47069e-06
-2.47112e-06
-2.45795e-06
-2.45745e-06
-2.45994e-06
-2.4604e-06
-2.46043e-06
-2.45995e-06
-2.45745e-06
-2.49008e-06
-2.48357e-06
-2.47005e-06
-2.45569e-06
-2.45765e-06
-2.46041e-06
-2.46084e-06
-2.46086e-06
-2.46042e-06
-2.45768e-06
-2.49789e-06
-2.48272e-06
-2.47085e-06
-2.45346e-06
-2.45766e-06
-2.46042e-06
-2.46086e-06
-2.46086e-06
-2.46041e-06
-2.45768e-06
-2.49847e-06
-2.47291e-06
-2.4576e-06
-2.45744e-06
-2.45994e-06
-2.4604e-06
-2.46042e-06
-2.45994e-06
-2.45746e-06
-2.49599e-06
-2.49161e-06
-2.47422e-06
-2.47066e-06
-2.45743e-06
-2.45764e-06
-2.45766e-06
-2.45745e-06
-2.50857e-06
-2.48319e-06
-2.47936e-06
-2.47186e-06
-2.47111e-06
-2.49005e-06
-2.49787e-06
-2.49846e-06
-2.49602e-06
-2.48323e-06
-2.49224e-06
-2.48351e-06
-2.4827e-06
-2.47288e-06
-2.49167e-06
-2.4794e-06
-2.44262e-06
-2.44338e-06
-2.43834e-06
-2.43042e-06
-2.42803e-06
-2.42573e-06
-2.43009e-06
-2.44685e-06
-2.44464e-06
-2.43836e-06
-2.41554e-06
-2.42988e-06
-2.42993e-06
-2.42993e-06
-2.42988e-06
-2.44342e-06
-2.44388e-06
-2.43042e-06
-2.42987e-06
-2.43077e-06
-2.4309e-06
-2.43091e-06
-2.43078e-06
-2.42988e-06
-2.46251e-06
-2.45617e-06
-2.44237e-06
-2.42803e-06
-2.42993e-06
-2.4309e-06
-2.43104e-06
-2.43104e-06
-2.4309e-06
-2.42994e-06
-2.47028e-06
-2.4552e-06
-2.44332e-06
-2.4257e-06
-2.42993e-06
-2.4309e-06
-2.43104e-06
-2.43105e-06
-2.43089e-06
-2.42993e-06
-2.47082e-06
-2.44535e-06
-2.43007e-06
-2.42987e-06
-2.43077e-06
-2.4309e-06
-2.43091e-06
-2.43077e-06
-2.42987e-06
-2.46817e-06
-2.46421e-06
-2.44684e-06
-2.44342e-06
-2.42987e-06
-2.42992e-06
-2.42993e-06
-2.42987e-06
-2.4815e-06
-2.45573e-06
-2.45206e-06
-2.44463e-06
-2.44386e-06
-2.4625e-06
-2.47026e-06
-2.47082e-06
-2.46818e-06
-2.45577e-06
-2.46509e-06
-2.45615e-06
-2.4552e-06
-2.44535e-06
-2.46418e-06
-2.45204e-06
-2.41483e-06
-2.41559e-06
-2.41068e-06
-2.40265e-06
-2.40021e-06
-2.39783e-06
-2.40232e-06
-2.41917e-06
-2.417e-06
-2.41069e-06
-2.38764e-06
-2.40207e-06
-2.40208e-06
-2.40208e-06
-2.40207e-06
-2.41575e-06
-2.41623e-06
-2.40267e-06
-2.40207e-06
-2.40241e-06
-2.40246e-06
-2.40246e-06
-2.40241e-06
-2.40208e-06
-2.43476e-06
-2.42849e-06
-2.41462e-06
-2.40021e-06
-2.40208e-06
-2.40246e-06
-2.4025e-06
-2.4025e-06
-2.40246e-06
-2.40208e-06
-2.44247e-06
-2.42746e-06
-2.41555e-06
-2.39782e-06
-2.40208e-06
-2.40246e-06
-2.4025e-06
-2.4025e-06
-2.40246e-06
-2.40208e-06
-2.44299e-06
-2.41758e-06
-2.40231e-06
-2.40207e-06
-2.40241e-06
-2.40246e-06
-2.40246e-06
-2.4024e-06
-2.40207e-06
-2.44032e-06
-2.43649e-06
-2.41916e-06
-2.41574e-06
-2.40207e-06
-2.40208e-06
-2.40209e-06
-2.40207e-06
-2.45396e-06
-2.42803e-06
-2.42439e-06
-2.417e-06
-2.41622e-06
-2.43475e-06
-2.44246e-06
-2.44299e-06
-2.44034e-06
-2.42807e-06
-2.43751e-06
-2.42848e-06
-2.42745e-06
-2.41758e-06
-2.43648e-06
-2.42438e-06
-2.38698e-06
-2.38774e-06
-2.38288e-06
-2.37481e-06
-2.37232e-06
-2.36994e-06
-2.37449e-06
-2.39135e-06
-2.38919e-06
-2.38289e-06
-2.35975e-06
-2.37422e-06
-2.37421e-06
-2.37422e-06
-2.37422e-06
-2.38793e-06
-2.38844e-06
-2.37482e-06
-2.37421e-06
-2.37434e-06
-2.37435e-06
-2.37436e-06
-2.37434e-06
-2.37421e-06
-2.40693e-06
-2.40067e-06
-2.38679e-06
-2.37232e-06
-2.37421e-06
-2.37436e-06
-2.37437e-06
-2.37437e-06
-2.37436e-06
-2.37421e-06
-2.4146e-06
-2.39963e-06
-2.38771e-06
-2.36993e-06
-2.37421e-06
-2.37436e-06
-2.37438e-06
-2.37437e-06
-2.37436e-06
-2.37421e-06
-2.41512e-06
-2.38975e-06
-2.37449e-06
-2.37421e-06
-2.37434e-06
-2.37436e-06
-2.37435e-06
-2.37433e-06
-2.37421e-06
-2.41247e-06
-2.40869e-06
-2.39135e-06
-2.38793e-06
-2.37421e-06
-2.37421e-06
-2.37422e-06
-2.37422e-06
-2.42623e-06
-2.40023e-06
-2.39659e-06
-2.38921e-06
-2.38843e-06
-2.40694e-06
-2.41462e-06
-2.41512e-06
-2.41248e-06
-2.40026e-06
-2.40974e-06
-2.40068e-06
-2.39963e-06
-2.38974e-06
-2.4087e-06
-2.39659e-06
-2.35912e-06
-2.35988e-06
-2.35503e-06
-2.34695e-06
-2.34444e-06
-2.34205e-06
-2.34663e-06
-2.36349e-06
-2.36134e-06
-2.35503e-06
-2.33184e-06
-2.34633e-06
-2.34635e-06
-2.34635e-06
-2.34634e-06
-2.36007e-06
-2.36059e-06
-2.34695e-06
-2.34634e-06
-2.34638e-06
-2.34639e-06
-2.34639e-06
-2.34638e-06
-2.34634e-06
-2.37906e-06
-2.37282e-06
-2.35892e-06
-2.34444e-06
-2.34635e-06
-2.34639e-06
-2.3464e-06
-2.3464e-06
-2.34639e-06
-2.34634e-06
-2.38673e-06
-2.37176e-06
-2.35985e-06
-2.34204e-06
-2.34634e-06
-2.34639e-06
-2.3464e-06
-2.3464e-06
-2.34639e-06
-2.34634e-06
-2.38724e-06
-2.36188e-06
-2.34662e-06
-2.34634e-06
-2.34638e-06
-2.34639e-06
-2.34639e-06
-2.34638e-06
-2.34634e-06
-2.38458e-06
-2.38083e-06
-2.36349e-06
-2.36007e-06
-2.34634e-06
-2.34634e-06
-2.34634e-06
-2.34634e-06
-2.39841e-06
-2.37239e-06
-2.36874e-06
-2.36136e-06
-2.36058e-06
-2.37907e-06
-2.38673e-06
-2.38723e-06
-2.38459e-06
-2.37242e-06
-2.38189e-06
-2.37282e-06
-2.37176e-06
-2.36187e-06
-2.38083e-06
-2.36875e-06
-2.33123e-06
-2.33199e-06
-2.32716e-06
-2.31907e-06
-2.31656e-06
-2.31415e-06
-2.31875e-06
-2.33562e-06
-2.33348e-06
-2.32716e-06
-2.30395e-06
-2.31846e-06
-2.31845e-06
-2.31845e-06
-2.31845e-06
-2.33219e-06
-2.33272e-06
-2.31907e-06
-2.31845e-06
-2.31848e-06
-2.31849e-06
-2.31848e-06
-2.31848e-06
-2.31846e-06
-2.3512e-06
-2.34495e-06
-2.33105e-06
-2.31655e-06
-2.31846e-06
-2.31849e-06
-2.31849e-06
-2.31849e-06
-2.31848e-06
-2.31846e-06
-2.35886e-06
-2.34389e-06
-2.33197e-06
-2.31415e-06
-2.31845e-06
-2.31848e-06
-2.31848e-06
-2.31849e-06
-2.31848e-06
-2.31846e-06
-2.35936e-06
-2.33401e-06
-2.31874e-06
-2.31846e-06
-2.31849e-06
-2.31849e-06
-2.31849e-06
-2.31848e-06
-2.31846e-06
-2.3567e-06
-2.35295e-06
-2.33562e-06
-2.3322e-06
-2.31845e-06
-2.31845e-06
-2.31846e-06
-2.31845e-06
-2.37055e-06
-2.34451e-06
-2.34086e-06
-2.33349e-06
-2.33272e-06
-2.3512e-06
-2.35885e-06
-2.35935e-06
-2.35672e-06
-2.34455e-06
-2.35403e-06
-2.34495e-06
-2.34388e-06
-2.33399e-06
-2.35295e-06
-2.34087e-06
-2.30334e-06
-2.30411e-06
-2.29928e-06
-2.29119e-06
-2.28867e-06
-2.28627e-06
-2.29087e-06
-2.30775e-06
-2.3056e-06
-2.29928e-06
-2.27607e-06
-2.29058e-06
-2.29058e-06
-2.29058e-06
-2.29058e-06
-2.30432e-06
-2.30485e-06
-2.29119e-06
-2.29058e-06
-2.29058e-06
-2.29059e-06
-2.29058e-06
-2.29058e-06
-2.29058e-06
-2.32332e-06
-2.31707e-06
-2.30317e-06
-2.28867e-06
-2.29058e-06
-2.29058e-06
-2.29059e-06
-2.29058e-06
-2.29059e-06
-2.29058e-06
-2.33098e-06
-2.31601e-06
-2.30409e-06
-2.28626e-06
-2.29058e-06
-2.29059e-06
-2.29059e-06
-2.29058e-06
-2.29059e-06
-2.29058e-06
-2.33148e-06
-2.30613e-06
-2.29087e-06
-2.29057e-06
-2.29058e-06
-2.29058e-06
-2.29058e-06
-2.29058e-06
-2.29057e-06
-2.32882e-06
-2.32508e-06
-2.30774e-06
-2.30433e-06
-2.29058e-06
-2.29058e-06
-2.29058e-06
-2.29058e-06
-2.34268e-06
-2.31664e-06
-2.31299e-06
-2.30561e-06
-2.30484e-06
-2.32332e-06
-2.33098e-06
-2.33147e-06
-2.32884e-06
-2.31667e-06
-2.32615e-06
-2.31707e-06
-2.31601e-06
-2.30612e-06
-2.32508e-06
-2.313e-06
-2.27545e-06
-2.27623e-06
-2.2714e-06
-2.26332e-06
-2.26079e-06
-2.25838e-06
-2.26299e-06
-2.27986e-06
-2.27772e-06
-2.2714e-06
-2.24819e-06
-2.2627e-06
-2.2627e-06
-2.2627e-06
-2.2627e-06
-2.27644e-06
-2.27697e-06
-2.26331e-06
-2.2627e-06
-2.2627e-06
-2.2627e-06
-2.2627e-06
-2.2627e-06
-2.2627e-06
-2.29544e-06
-2.28919e-06
-2.27529e-06
-2.26079e-06
-2.2627e-06
-2.2627e-06
-2.2627e-06
-2.2627e-06
-2.2627e-06
-2.2627e-06
-2.30309e-06
-2.28813e-06
-2.27621e-06
-2.25838e-06
-2.2627e-06
-2.2627e-06
-2.2627e-06
-2.2627e-06
-2.2627e-06
-2.2627e-06
-2.30359e-06
-2.27825e-06
-2.26299e-06
-2.2627e-06
-2.2627e-06
-2.2627e-06
-2.2627e-06
-2.2627e-06
-2.2627e-06
-2.30094e-06
-2.2972e-06
-2.27986e-06
-2.27645e-06
-2.2627e-06
-2.2627e-06
-2.2627e-06
-2.2627e-06
-2.31479e-06
-2.28876e-06
-2.28511e-06
-2.27773e-06
-2.27696e-06
-2.29544e-06
-2.30309e-06
-2.30358e-06
-2.30096e-06
-2.28879e-06
-2.29827e-06
-2.28919e-06
-2.28813e-06
-2.27823e-06
-2.2972e-06
-2.28512e-06
-2.24758e-06
-2.24835e-06
-2.24352e-06
-2.23544e-06
-2.23291e-06
-2.23051e-06
-2.23511e-06
-2.25198e-06
-2.24984e-06
-2.24352e-06
-2.2203e-06
-2.23482e-06
-2.23482e-06
-2.23482e-06
-2.23482e-06
-2.24856e-06
-2.24909e-06
-2.23543e-06
-2.23482e-06
-2.23482e-06
-2.23482e-06
-2.23482e-06
-2.23482e-06
-2.23482e-06
-2.26756e-06
-2.26131e-06
-2.24741e-06
-2.23291e-06
-2.23482e-06
-2.23482e-06
-2.23482e-06
-2.23482e-06
-2.23482e-06
-2.23482e-06
-2.27521e-06
-2.26025e-06
-2.24833e-06
-2.2305e-06
-2.23482e-06
-2.23482e-06
-2.23482e-06
-2.23482e-06
-2.23482e-06
-2.23482e-06
-2.27571e-06
-2.25037e-06
-2.23511e-06
-2.23482e-06
-2.23482e-06
-2.23482e-06
-2.23482e-06
-2.23482e-06
-2.23482e-06
-2.27306e-06
-2.26932e-06
-2.25198e-06
-2.24857e-06
-2.23482e-06
-2.23482e-06
-2.23482e-06
-2.23482e-06
-2.28692e-06
-2.26088e-06
-2.25723e-06
-2.24985e-06
-2.24908e-06
-2.26756e-06
-2.27521e-06
-2.27571e-06
-2.27308e-06
-2.26091e-06
-2.27039e-06
-2.26132e-06
-2.26025e-06
-2.25035e-06
-2.26932e-06
-2.25724e-06
-2.21972e-06
-2.22047e-06
-2.21564e-06
-2.20755e-06
-2.20503e-06
-2.20263e-06
-2.20723e-06
-2.2241e-06
-2.22196e-06
-2.21564e-06
-2.19242e-06
-2.20694e-06
-2.20694e-06
-2.20694e-06
-2.20694e-06
-2.22068e-06
-2.22121e-06
-2.20755e-06
-2.20694e-06
-2.20694e-06
-2.20694e-06
-2.20694e-06
-2.20694e-06
-2.20694e-06
-2.23968e-06
-2.23343e-06
-2.21953e-06
-2.20503e-06
-2.20694e-06
-2.20694e-06
-2.20694e-06
-2.20694e-06
-2.20694e-06
-2.20694e-06
-2.24733e-06
-2.23237e-06
-2.22045e-06
-2.20262e-06
-2.20694e-06
-2.20694e-06
-2.20694e-06
-2.20694e-06
-2.20694e-06
-2.20694e-06
-2.24783e-06
-2.22249e-06
-2.20723e-06
-2.20694e-06
-2.20694e-06
-2.20694e-06
-2.20694e-06
-2.20694e-06
-2.20694e-06
-2.24518e-06
-2.24144e-06
-2.2241e-06
-2.22069e-06
-2.20694e-06
-2.20694e-06
-2.20694e-06
-2.20694e-06
-2.25904e-06
-2.233e-06
-2.22935e-06
-2.22198e-06
-2.2212e-06
-2.23968e-06
-2.24733e-06
-2.24783e-06
-2.2452e-06
-2.23304e-06
-2.24252e-06
-2.23344e-06
-2.23237e-06
-2.22248e-06
-2.24144e-06
-2.22936e-06
-2.19182e-06
-2.19259e-06
-2.18776e-06
-2.17968e-06
-2.17715e-06
-2.17475e-06
-2.17935e-06
-2.19622e-06
-2.19408e-06
-2.18776e-06
-2.16454e-06
-2.17906e-06
-2.17906e-06
-2.17906e-06
-2.17906e-06
-2.1928e-06
-2.19333e-06
-2.17967e-06
-2.17906e-06
-2.17906e-06
-2.17906e-06
-2.17906e-06
-2.17906e-06
-2.17906e-06
-2.2118e-06
-2.20555e-06
-2.19165e-06
-2.17715e-06
-2.17906e-06
-2.17906e-06
-2.17906e-06
-2.17906e-06
-2.17906e-06
-2.17906e-06
-2.21945e-06
-2.20449e-06
-2.19257e-06
-2.17474e-06
-2.17906e-06
-2.17906e-06
-2.17906e-06
-2.17906e-06
-2.17906e-06
-2.17906e-06
-2.21995e-06
-2.19461e-06
-2.17935e-06
-2.17906e-06
-2.17906e-06
-2.17906e-06
-2.17906e-06
-2.17906e-06
-2.17906e-06
-2.2173e-06
-2.21356e-06
-2.19622e-06
-2.19281e-06
-2.17906e-06
-2.17906e-06
-2.17906e-06
-2.17906e-06
-2.23116e-06
-2.20512e-06
-2.20147e-06
-2.19409e-06
-2.19332e-06
-2.2118e-06
-2.21945e-06
-2.21995e-06
-2.21732e-06
-2.20516e-06
-2.21464e-06
-2.20555e-06
-2.20449e-06
-2.19459e-06
-2.21356e-06
-2.20148e-06
-2.16394e-06
-2.16472e-06
-2.15988e-06
-2.1518e-06
-2.14927e-06
-2.14687e-06
-2.15147e-06
-2.16834e-06
-2.16619e-06
-2.15988e-06
-2.13666e-06
-2.15118e-06
-2.15118e-06
-2.15118e-06
-2.15118e-06
-2.16491e-06
-2.16545e-06
-2.15179e-06
-2.15118e-06
-2.15118e-06
-2.15118e-06
-2.15118e-06
-2.15118e-06
-2.15118e-06
-2.18392e-06
-2.17767e-06
-2.16377e-06
-2.14927e-06
-2.15118e-06
-2.15118e-06
-2.15118e-06
-2.15118e-06
-2.15118e-06
-2.15118e-06
-2.19157e-06
-2.17661e-06
-2.16469e-06
-2.14686e-06
-2.15118e-06
-2.15118e-06
-2.15118e-06
-2.15118e-06
-2.15118e-06
-2.15118e-06
-2.19207e-06
-2.16673e-06
-2.15147e-06
-2.15118e-06
-2.15118e-06
-2.15118e-06
-2.15118e-06
-2.15118e-06
-2.15118e-06
-2.18942e-06
-2.18568e-06
-2.16834e-06
-2.16493e-06
-2.15118e-06
-2.15118e-06
-2.15118e-06
-2.15118e-06
-2.20328e-06
-2.17724e-06
-2.17359e-06
-2.16621e-06
-2.16544e-06
-2.18392e-06
-2.19157e-06
-2.19207e-06
-2.18944e-06
-2.17727e-06
-2.18675e-06
-2.17767e-06
-2.17661e-06
-2.16671e-06
-2.18568e-06
-2.1736e-06
-2.13606e-06
-2.13683e-06
-2.132e-06
-2.12392e-06
-2.12139e-06
-2.11899e-06
-2.12359e-06
-2.14046e-06
-2.13832e-06
-2.13201e-06
-2.10878e-06
-2.1233e-06
-2.1233e-06
-2.1233e-06
-2.1233e-06
-2.13703e-06
-2.13757e-06
-2.12391e-06
-2.1233e-06
-2.1233e-06
-2.1233e-06
-2.1233e-06
-2.1233e-06
-2.1233e-06
-2.15604e-06
-2.14979e-06
-2.13589e-06
-2.12139e-06
-2.1233e-06
-2.1233e-06
-2.1233e-06
-2.1233e-06
-2.1233e-06
-2.1233e-06
-2.16369e-06
-2.14873e-06
-2.13681e-06
-2.11898e-06
-2.1233e-06
-2.1233e-06
-2.1233e-06
-2.1233e-06
-2.1233e-06
-2.1233e-06
-2.16419e-06
-2.13885e-06
-2.12359e-06
-2.1233e-06
-2.1233e-06
-2.1233e-06
-2.1233e-06
-2.1233e-06
-2.1233e-06
-2.16154e-06
-2.1578e-06
-2.14047e-06
-2.13705e-06
-2.1233e-06
-2.1233e-06
-2.1233e-06
-2.1233e-06
-2.1754e-06
-2.14936e-06
-2.14571e-06
-2.13834e-06
-2.13756e-06
-2.15604e-06
-2.16369e-06
-2.16419e-06
-2.16156e-06
-2.1494e-06
-2.15888e-06
-2.14979e-06
-2.14873e-06
-2.13884e-06
-2.1578e-06
-2.14572e-06
-2.10818e-06
-2.10895e-06
-2.10412e-06
-2.09604e-06
-2.09351e-06
-2.09111e-06
-2.09571e-06
-2.11258e-06
-2.11044e-06
-2.10412e-06
-2.0809e-06
-2.09542e-06
-2.09542e-06
-2.09542e-06
-2.09542e-06
-2.10915e-06
-2.10969e-06
-2.09603e-06
-2.09542e-06
-2.09542e-06
-2.09542e-06
-2.09542e-06
-2.09542e-06
-2.09542e-06
-2.12816e-06
-2.12191e-06
-2.10801e-06
-2.09351e-06
-2.09542e-06
-2.09542e-06
-2.09542e-06
-2.09542e-06
-2.09542e-06
-2.09542e-06
-2.13581e-06
-2.12085e-06
-2.10893e-06
-2.0911e-06
-2.09542e-06
-2.09542e-06
-2.09542e-06
-2.09542e-06
-2.09542e-06
-2.09542e-06
-2.13631e-06
-2.11097e-06
-2.09571e-06
-2.09542e-06
-2.09542e-06
-2.09542e-06
-2.09542e-06
-2.09542e-06
-2.09542e-06
-2.13366e-06
-2.12992e-06
-2.11258e-06
-2.10917e-06
-2.09542e-06
-2.09542e-06
-2.09542e-06
-2.09542e-06
-2.14752e-06
-2.12148e-06
-2.11783e-06
-2.11046e-06
-2.10968e-06
-2.12816e-06
-2.13581e-06
-2.13631e-06
-2.13368e-06
-2.12152e-06
-2.131e-06
-2.12192e-06
-2.12085e-06
-2.11096e-06
-2.12993e-06
-2.11784e-06
-2.0803e-06
-2.08107e-06
-2.07624e-06
-2.06815e-06
-2.06563e-06
-2.06322e-06
-2.06783e-06
-2.0847e-06
-2.08256e-06
-2.07624e-06
-2.05302e-06
-2.06753e-06
-2.06753e-06
-2.06753e-06
-2.06753e-06
-2.08127e-06
-2.08181e-06
-2.06815e-06
-2.06753e-06
-2.06753e-06
-2.06753e-06
-2.06753e-06
-2.06753e-06
-2.06753e-06
-2.10028e-06
-2.09403e-06
-2.08012e-06
-2.06562e-06
-2.06753e-06
-2.06753e-06
-2.06753e-06
-2.06753e-06
-2.06753e-06
-2.06753e-06
-2.10793e-06
-2.09297e-06
-2.08104e-06
-2.06322e-06
-2.06753e-06
-2.06753e-06
-2.06753e-06
-2.06753e-06
-2.06753e-06
-2.06753e-06
-2.10843e-06
-2.08308e-06
-2.06783e-06
-2.06753e-06
-2.06753e-06
-2.06753e-06
-2.06753e-06
-2.06753e-06
-2.06753e-06
-2.10578e-06
-2.10204e-06
-2.0847e-06
-2.08129e-06
-2.06753e-06
-2.06753e-06
-2.06753e-06
-2.06753e-06
-2.11964e-06
-2.0936e-06
-2.08995e-06
-2.08257e-06
-2.0818e-06
-2.10028e-06
-2.10793e-06
-2.10843e-06
-2.1058e-06
-2.09363e-06
-2.10311e-06
-2.09403e-06
-2.09297e-06
-2.08307e-06
-2.10204e-06
-2.08996e-06
-2.05242e-06
-2.05319e-06
-2.04836e-06
-2.04027e-06
-2.03775e-06
-2.03534e-06
-2.03995e-06
-2.05682e-06
-2.05468e-06
-2.04836e-06
-2.02514e-06
-2.03965e-06
-2.03965e-06
-2.03965e-06
-2.03965e-06
-2.05339e-06
-2.05393e-06
-2.04027e-06
-2.03965e-06
-2.03965e-06
-2.03965e-06
-2.03965e-06
-2.03965e-06
-2.03965e-06
-2.0724e-06
-2.06615e-06
-2.05224e-06
-2.03774e-06
-2.03965e-06
-2.03965e-06
-2.03965e-06
-2.03965e-06
-2.03965e-06
-2.03965e-06
-2.08005e-06
-2.06509e-06
-2.05316e-06
-2.03534e-06
-2.03965e-06
-2.03965e-06
-2.03965e-06
-2.03965e-06
-2.03965e-06
-2.03965e-06
-2.08055e-06
-2.0552e-06
-2.03995e-06
-2.03965e-06
-2.03965e-06
-2.03965e-06
-2.03965e-06
-2.03965e-06
-2.03965e-06
-2.0779e-06
-2.07416e-06
-2.05682e-06
-2.05341e-06
-2.03965e-06
-2.03965e-06
-2.03966e-06
-2.03965e-06
-2.09176e-06
-2.06572e-06
-2.06207e-06
-2.05469e-06
-2.05392e-06
-2.0724e-06
-2.08005e-06
-2.08055e-06
-2.07792e-06
-2.06575e-06
-2.07523e-06
-2.06615e-06
-2.06509e-06
-2.05521e-06
-2.07415e-06
-2.06207e-06
-2.02454e-06
-2.02531e-06
-2.02048e-06
-2.01239e-06
-2.00987e-06
-2.00746e-06
-2.01207e-06
-2.02894e-06
-2.0268e-06
-2.02048e-06
-1.99726e-06
-2.01177e-06
-2.01177e-06
-2.01177e-06
-2.01177e-06
-2.02551e-06
-2.02605e-06
-2.01239e-06
-2.01177e-06
-2.01177e-06
-2.01177e-06
-2.01177e-06
-2.01177e-06
-2.01177e-06
-2.04452e-06
-2.03827e-06
-2.02436e-06
-2.00986e-06
-2.01177e-06
-2.01177e-06
-2.01177e-06
-2.01177e-06
-2.01177e-06
-2.01177e-06
-2.05217e-06
-2.03721e-06
-2.02528e-06
-2.00746e-06
-2.01177e-06
-2.01177e-06
-2.01177e-06
-2.01177e-06
-2.01177e-06
-2.01177e-06
-2.05267e-06
-2.02732e-06
-2.01207e-06
-2.01177e-06
-2.01177e-06
-2.01177e-06
-2.01177e-06
-2.01177e-06
-2.01177e-06
-2.05002e-06
-2.04628e-06
-2.02894e-06
-2.02553e-06
-2.01177e-06
-2.01177e-06
-2.01177e-06
-2.01177e-06
-2.06388e-06
-2.03784e-06
-2.03419e-06
-2.02681e-06
-2.02604e-06
-2.04452e-06
-2.05217e-06
-2.05267e-06
-2.05004e-06
-2.03787e-06
-2.04735e-06
-2.03827e-06
-2.03721e-06
-2.02731e-06
-2.04628e-06
-2.0342e-06
-1.99666e-06
-1.99743e-06
-1.9926e-06
-1.98451e-06
-1.98199e-06
-1.97958e-06
-1.98419e-06
-2.00106e-06
-1.99892e-06
-1.9926e-06
-1.96938e-06
-1.98389e-06
-1.98389e-06
-1.98389e-06
-1.98389e-06
-1.99764e-06
-1.99817e-06
-1.98451e-06
-1.98389e-06
-1.98389e-06
-1.98389e-06
-1.98389e-06
-1.98389e-06
-1.98389e-06
-2.01664e-06
-2.01039e-06
-1.99648e-06
-1.98198e-06
-1.98389e-06
-1.98389e-06
-1.98389e-06
-1.98389e-06
-1.98389e-06
-1.98389e-06
-2.02429e-06
-2.00933e-06
-1.99741e-06
-1.97958e-06
-1.98389e-06
-1.98389e-06
-1.98389e-06
-1.98389e-06
-1.98389e-06
-1.98389e-06
-2.02479e-06
-1.99945e-06
-1.98419e-06
-1.98389e-06
-1.98389e-06
-1.98389e-06
-1.98389e-06
-1.98389e-06
-1.98389e-06
-2.02214e-06
-2.0184e-06
-2.00106e-06
-1.99765e-06
-1.98389e-06
-1.98389e-06
-1.98389e-06
-1.98389e-06
-2.036e-06
-2.00996e-06
-2.00631e-06
-1.99893e-06
-1.99816e-06
-2.01664e-06
-2.02429e-06
-2.02479e-06
-2.02216e-06
-2.00999e-06
-2.01947e-06
-2.01039e-06
-2.00933e-06
-1.99944e-06
-2.0184e-06
-2.00632e-06
-1.96878e-06
-1.96955e-06
-1.96472e-06
-1.95663e-06
-1.95411e-06
-1.9517e-06
-1.95631e-06
-1.97318e-06
-1.97104e-06
-1.96472e-06
-1.9415e-06
-1.95601e-06
-1.95601e-06
-1.95601e-06
-1.95601e-06
-1.96976e-06
-1.97029e-06
-1.95663e-06
-1.95601e-06
-1.95601e-06
-1.95601e-06
-1.95601e-06
-1.95601e-06
-1.95601e-06
-1.98876e-06
-1.98251e-06
-1.96861e-06
-1.9541e-06
-1.95601e-06
-1.95601e-06
-1.95601e-06
-1.95601e-06
-1.95601e-06
-1.95601e-06
-1.99641e-06
-1.98145e-06
-1.96953e-06
-1.9517e-06
-1.95601e-06
-1.95601e-06
-1.95601e-06
-1.95601e-06
-1.95601e-06
-1.95601e-06
-1.99691e-06
-1.97157e-06
-1.95631e-06
-1.95601e-06
-1.95601e-06
-1.95601e-06
-1.95601e-06
-1.95601e-06
-1.95601e-06
-1.99426e-06
-1.99052e-06
-1.97318e-06
-1.96977e-06
-1.95601e-06
-1.95601e-06
-1.95601e-06
-1.95601e-06
-2.00812e-06
-1.98208e-06
-1.97843e-06
-1.97105e-06
-1.97028e-06
-1.98876e-06
-1.99641e-06
-1.99691e-06
-1.99429e-06
-1.98211e-06
-1.99159e-06
-1.98251e-06
-1.98145e-06
-1.97156e-06
-1.99052e-06
-1.97844e-06
-1.9409e-06
-1.94167e-06
-1.93684e-06
-1.92875e-06
-1.92623e-06
-1.92382e-06
-1.92843e-06
-1.9453e-06
-1.94316e-06
-1.93684e-06
-1.91362e-06
-1.92813e-06
-1.92813e-06
-1.92813e-06
-1.92813e-06
-1.94187e-06
-1.94241e-06
-1.92875e-06
-1.92813e-06
-1.92813e-06
-1.92813e-06
-1.92813e-06
-1.92813e-06
-1.92813e-06
-1.96088e-06
-1.95463e-06
-1.94072e-06
-1.92622e-06
-1.92813e-06
-1.92813e-06
-1.92813e-06
-1.92813e-06
-1.92813e-06
-1.92813e-06
-1.96853e-06
-1.95357e-06
-1.94164e-06
-1.92382e-06
-1.92813e-06
-1.92813e-06
-1.92813e-06
-1.92813e-06
-1.92813e-06
-1.92813e-06
-1.96903e-06
-1.94368e-06
-1.92843e-06
-1.92813e-06
-1.92813e-06
-1.92813e-06
-1.92813e-06
-1.92813e-06
-1.92813e-06
-1.96638e-06
-1.96264e-06
-1.9453e-06
-1.94189e-06
-1.92813e-06
-1.92813e-06
-1.92813e-06
-1.92813e-06
-1.98024e-06
-1.9542e-06
-1.95055e-06
-1.94317e-06
-1.9424e-06
-1.96088e-06
-1.96853e-06
-1.96903e-06
-1.9664e-06
-1.95423e-06
-1.96371e-06
-1.95463e-06
-1.95357e-06
-1.94368e-06
-1.96264e-06
-1.95055e-06
-1.91302e-06
-1.91379e-06
-1.90896e-06
-1.90087e-06
-1.89834e-06
-1.89594e-06
-1.90055e-06
-1.91742e-06
-1.91528e-06
-1.90896e-06
-1.88574e-06
-1.90025e-06
-1.90025e-06
-1.90025e-06
-1.90025e-06
-1.91399e-06
-1.91452e-06
-1.90087e-06
-1.90025e-06
-1.90025e-06
-1.90025e-06
-1.90025e-06
-1.90025e-06
-1.90025e-06
-1.933e-06
-1.92675e-06
-1.91284e-06
-1.89834e-06
-1.90025e-06
-1.90025e-06
-1.90025e-06
-1.90025e-06
-1.90025e-06
-1.90025e-06
-1.94065e-06
-1.92569e-06
-1.91376e-06
-1.89594e-06
-1.90025e-06
-1.90025e-06
-1.90025e-06
-1.90025e-06
-1.90025e-06
-1.90025e-06
-1.94115e-06
-1.9158e-06
-1.90055e-06
-1.90025e-06
-1.90025e-06
-1.90025e-06
-1.90025e-06
-1.90025e-06
-1.90025e-06
-1.9385e-06
-1.93476e-06
-1.91742e-06
-1.914e-06
-1.90025e-06
-1.90025e-06
-1.90025e-06
-1.90025e-06
-1.95236e-06
-1.92632e-06
-1.92267e-06
-1.91529e-06
-1.91452e-06
-1.933e-06
-1.94065e-06
-1.94115e-06
-1.93852e-06
-1.92635e-06
-1.93583e-06
-1.92675e-06
-1.92569e-06
-1.9158e-06
-1.93476e-06
-1.92267e-06
-1.88514e-06
-1.88591e-06
-1.88108e-06
-1.87299e-06
-1.87046e-06
-1.86806e-06
-1.87267e-06
-1.88954e-06
-1.8874e-06
-1.88108e-06
-1.85786e-06
-1.87237e-06
-1.87237e-06
-1.87237e-06
-1.87237e-06
-1.88611e-06
-1.88664e-06
-1.87299e-06
-1.87237e-06
-1.87237e-06
-1.87237e-06
-1.87237e-06
-1.87237e-06
-1.87237e-06
-1.90512e-06
-1.89887e-06
-1.88496e-06
-1.87046e-06
-1.87237e-06
-1.87237e-06
-1.87237e-06
-1.87237e-06
-1.87237e-06
-1.87237e-06
-1.91277e-06
-1.89781e-06
-1.88588e-06
-1.86806e-06
-1.87237e-06
-1.87237e-06
-1.87237e-06
-1.87237e-06
-1.87237e-06
-1.87237e-06
-1.91327e-06
-1.88792e-06
-1.87267e-06
-1.87237e-06
-1.87237e-06
-1.87237e-06
-1.87237e-06
-1.87237e-06
-1.87237e-06
-1.91062e-06
-1.90688e-06
-1.88954e-06
-1.88612e-06
-1.87237e-06
-1.87237e-06
-1.87237e-06
-1.87237e-06
-1.92448e-06
-1.89844e-06
-1.89479e-06
-1.88741e-06
-1.88664e-06
-1.90512e-06
-1.91277e-06
-1.91327e-06
-1.91064e-06
-1.89847e-06
-1.90795e-06
-1.89887e-06
-1.89781e-06
-1.88792e-06
-1.90688e-06
-1.89479e-06
-1.85726e-06
-1.85803e-06
-1.8532e-06
-1.84511e-06
-1.84258e-06
-1.84018e-06
-1.84479e-06
-1.86166e-06
-1.85952e-06
-1.8532e-06
-1.82998e-06
-1.84449e-06
-1.84449e-06
-1.84449e-06
-1.84449e-06
-1.85823e-06
-1.85876e-06
-1.84511e-06
-1.84449e-06
-1.84449e-06
-1.84449e-06
-1.84449e-06
-1.84449e-06
-1.84449e-06
-1.87724e-06
-1.87099e-06
-1.85708e-06
-1.84258e-06
-1.84449e-06
-1.84449e-06
-1.84449e-06
-1.84449e-06
-1.84449e-06
-1.84449e-06
-1.88489e-06
-1.86993e-06
-1.858e-06
-1.84018e-06
-1.84449e-06
-1.84449e-06
-1.84449e-06
-1.84449e-06
-1.84449e-06
-1.84449e-06
-1.88539e-06
-1.86004e-06
-1.84479e-06
-1.84449e-06
-1.84449e-06
-1.84449e-06
-1.84449e-06
-1.84449e-06
-1.84449e-06
-1.88274e-06
-1.879e-06
-1.86166e-06
-1.85824e-06
-1.84449e-06
-1.84449e-06
-1.84449e-06
-1.84449e-06
-1.8966e-06
-1.87056e-06
-1.86691e-06
-1.85953e-06
-1.85876e-06
-1.87724e-06
-1.88489e-06
-1.88539e-06
-1.88276e-06
-1.87059e-06
-1.88007e-06
-1.87099e-06
-1.86993e-06
-1.86004e-06
-1.879e-06
-1.86691e-06
-1.82938e-06
-1.83015e-06
-1.82532e-06
-1.81723e-06
-1.8147e-06
-1.8123e-06
-1.81691e-06
-1.83378e-06
-1.83164e-06
-1.82532e-06
-1.8021e-06
-1.81661e-06
-1.81661e-06
-1.81661e-06
-1.81661e-06
-1.83035e-06
-1.83088e-06
-1.81723e-06
-1.81661e-06
-1.81661e-06
-1.81661e-06
-1.81661e-06
-1.81661e-06
-1.81661e-06
-1.84936e-06
-1.84311e-06
-1.8292e-06
-1.8147e-06
-1.81661e-06
-1.81661e-06
-1.81661e-06
-1.81661e-06
-1.81661e-06
-1.81661e-06
-1.85701e-06
-1.84205e-06
-1.83012e-06
-1.8123e-06
-1.81661e-06
-1.81661e-06
-1.81661e-06
-1.81661e-06
-1.81661e-06
-1.81661e-06
-1.85751e-06
-1.83216e-06
-1.81691e-06
-1.81661e-06
-1.81661e-06
-1.81661e-06
-1.81661e-06
-1.81661e-06
-1.81661e-06
-1.85486e-06
-1.85112e-06
-1.83378e-06
-1.83036e-06
-1.81661e-06
-1.81661e-06
-1.81661e-06
-1.81661e-06
-1.86871e-06
-1.84267e-06
-1.83902e-06
-1.83165e-06
-1.83088e-06
-1.84936e-06
-1.85701e-06
-1.85751e-06
-1.85488e-06
-1.84271e-06
-1.85219e-06
-1.84311e-06
-1.84205e-06
-1.83216e-06
-1.85112e-06
-1.83903e-06
-1.8015e-06
-1.80227e-06
-1.79744e-06
-1.78935e-06
-1.78682e-06
-1.78442e-06
-1.78903e-06
-1.8059e-06
-1.80376e-06
-1.79744e-06
-1.77422e-06
-1.78873e-06
-1.78873e-06
-1.78873e-06
-1.78873e-06
-1.80247e-06
-1.803e-06
-1.78935e-06
-1.78873e-06
-1.78873e-06
-1.78873e-06
-1.78873e-06
-1.78873e-06
-1.78873e-06
-1.82147e-06
-1.81523e-06
-1.80132e-06
-1.78682e-06
-1.78873e-06
-1.78873e-06
-1.78873e-06
-1.78873e-06
-1.78873e-06
-1.78873e-06
-1.82913e-06
-1.81417e-06
-1.80224e-06
-1.78442e-06
-1.78873e-06
-1.78873e-06
-1.78873e-06
-1.78873e-06
-1.78873e-06
-1.78873e-06
-1.82963e-06
-1.80428e-06
-1.78902e-06
-1.78873e-06
-1.78873e-06
-1.78873e-06
-1.78873e-06
-1.78873e-06
-1.78873e-06
-1.82697e-06
-1.82323e-06
-1.8059e-06
-1.80248e-06
-1.78873e-06
-1.78873e-06
-1.78873e-06
-1.78873e-06
-1.84083e-06
-1.81479e-06
-1.81114e-06
-1.80377e-06
-1.803e-06
-1.82148e-06
-1.82913e-06
-1.82963e-06
-1.827e-06
-1.81483e-06
-1.82431e-06
-1.81523e-06
-1.81417e-06
-1.80428e-06
-1.82323e-06
-1.81115e-06
-1.77362e-06
-1.77439e-06
-1.76956e-06
-1.76147e-06
-1.75894e-06
-1.75654e-06
-1.76115e-06
-1.77802e-06
-1.77588e-06
-1.76956e-06
-1.74634e-06
-1.76085e-06
-1.76085e-06
-1.76085e-06
-1.76085e-06
-1.7746e-06
-1.77512e-06
-1.76147e-06
-1.76085e-06
-1.76085e-06
-1.76085e-06
-1.76085e-06
-1.76085e-06
-1.76085e-06
-1.79359e-06
-1.78735e-06
-1.77344e-06
-1.75894e-06
-1.76085e-06
-1.76085e-06
-1.76085e-06
-1.76085e-06
-1.76085e-06
-1.76085e-06
-1.80125e-06
-1.78629e-06
-1.77436e-06
-1.75654e-06
-1.76085e-06
-1.76085e-06
-1.76085e-06
-1.76085e-06
-1.76085e-06
-1.76085e-06
-1.80175e-06
-1.7764e-06
-1.76115e-06
-1.76085e-06
-1.76085e-06
-1.76085e-06
-1.76085e-06
-1.76085e-06
-1.76085e-06
-1.7991e-06
-1.79535e-06
-1.77802e-06
-1.7746e-06
-1.76085e-06
-1.76085e-06
-1.76085e-06
-1.76085e-06
-1.81295e-06
-1.78691e-06
-1.78326e-06
-1.77589e-06
-1.77512e-06
-1.7936e-06
-1.80125e-06
-1.80175e-06
-1.79912e-06
-1.78695e-06
-1.79643e-06
-1.78735e-06
-1.78629e-06
-1.7764e-06
-1.79535e-06
-1.78327e-06
-1.74574e-06
-1.74651e-06
-1.74168e-06
-1.73359e-06
-1.73106e-06
-1.72866e-06
-1.73327e-06
-1.75014e-06
-1.748e-06
-1.74168e-06
-1.71846e-06
-1.73297e-06
-1.73297e-06
-1.73297e-06
-1.73297e-06
-1.74672e-06
-1.74724e-06
-1.73359e-06
-1.73297e-06
-1.73297e-06
-1.73297e-06
-1.73297e-06
-1.73297e-06
-1.73297e-06
-1.76571e-06
-1.75947e-06