/*--------------------------------*- C++ -*----------------------------------*\
| =========                 |                                                 |
| \\      /  F ield         | OpenFOAM: The Open Source CFD Toolbox           |
|  \\    /   O peration     | Version:  v2012                                 |
|   \\  /    A nd           | Website:  www.openfoam.com                      |
|    \\/     M anipulation  |                                                 |
\*---------------------------------------------------------------------------*/
FoamFile
{
    version     2.0;
    format      ascii;
    class       volScalarField;
    location    "0.43";
    object      p;
}
// * * * * * * * * * * * * * * * * * * * * * * * * * * * * * * * * * * * * * //

dimensions      [0 2 -2 0 0 0 0];


internalField   nonuniform List<scalar> 
189320
(
9.12491e-07
9.1178e-07
9.06509e-07
9.06293e-07
9.05432e-07
9.048e-07
9.06224e-07
9.07636e-07
9.03965e-07
9.06493e-07
9.04139e-07
9.05207e-07
9.04634e-07
9.0453e-07
9.04872e-07
9.04833e-07
9.05252e-07
9.06285e-07
9.05193e-07
9.04362e-07
9.0401e-07
9.03943e-07
9.04191e-07
9.04673e-07
9.04252e-07
9.08004e-07
9.12511e-07
9.05365e-07
9.04626e-07
9.04009e-07
9.03693e-07
9.03634e-07
9.03831e-07
9.04305e-07
9.04961e-07
9.06828e-07
9.11765e-07
9.04785e-07
9.04524e-07
9.03942e-07
9.03635e-07
9.03575e-07
9.03761e-07
9.04207e-07
9.05042e-07
9.04989e-07
9.06216e-07
9.04869e-07
9.04192e-07
9.03833e-07
9.03762e-07
9.03994e-07
9.04486e-07
9.04779e-07
9.15321e-07
9.07628e-07
9.04833e-07
9.04677e-07
9.04313e-07
9.04214e-07
9.04489e-07
9.04954e-07
9.04149e-07
9.07523e-07
9.03958e-07
9.05257e-07
9.04269e-07
9.04981e-07
9.05061e-07
9.04788e-07
9.04159e-07
9.03529e-07
9.08043e-07
9.06872e-07
9.0502e-07
9.15337e-07
9.07537e-07
8.94306e-07
8.9407e-07
8.95261e-07
8.92803e-07
8.92971e-07
8.92688e-07
8.9267e-07
8.93896e-07
8.94411e-07
8.95263e-07
8.93578e-07
8.87706e-07
8.8775e-07
8.87752e-07
8.87701e-07
8.90376e-07
8.90965e-07
8.92799e-07
8.877e-07
8.87351e-07
8.8785e-07
8.87844e-07
8.87355e-07
8.87714e-07
8.88675e-07
8.91858e-07
8.94299e-07
8.92973e-07
8.87747e-07
8.8784e-07
8.88048e-07
8.88046e-07
8.87848e-07
8.8775e-07
8.88323e-07
8.91564e-07
8.94065e-07
8.92688e-07
8.8775e-07
8.87841e-07
8.88046e-07
8.88046e-07
8.87852e-07
8.87755e-07
8.8838e-07
8.90838e-07
8.9267e-07
8.87698e-07
8.87352e-07
8.87847e-07
8.8784e-07
8.87358e-07
8.87711e-07
8.88362e-07
8.89704e-07
8.93897e-07
8.90381e-07
8.87713e-07
8.87751e-07
8.87751e-07
8.87706e-07
8.86131e-07
8.89634e-07
8.929e-07
8.94411e-07
8.90965e-07
8.88677e-07
8.88322e-07
8.88379e-07
8.8836e-07
8.89622e-07
8.90431e-07
8.9186e-07
8.91569e-07
8.90839e-07
8.89703e-07
8.92897e-07
8.84981e-07
8.84569e-07
8.85851e-07
8.83769e-07
8.84023e-07
8.8401e-07
8.83446e-07
8.84454e-07
8.84822e-07
8.85849e-07
8.85249e-07
8.78887e-07
8.78852e-07
8.7885e-07
8.78889e-07
8.81957e-07
8.8169e-07
8.83767e-07
8.78886e-07
8.78517e-07
8.78637e-07
8.78627e-07
8.78526e-07
8.7889e-07
8.78527e-07
8.82526e-07
8.84979e-07
8.8402e-07
8.78849e-07
8.78626e-07
8.78706e-07
8.78701e-07
8.78635e-07
8.78853e-07
8.77661e-07
8.82516e-07
8.84568e-07
8.84008e-07
8.78849e-07
8.78626e-07
8.78703e-07
8.78702e-07
8.78637e-07
8.78854e-07
8.77817e-07
8.81225e-07
8.8344e-07
8.78886e-07
8.7852e-07
8.78635e-07
8.78626e-07
8.78526e-07
8.78891e-07
8.77858e-07
8.80502e-07
8.84452e-07
8.81956e-07
8.78889e-07
8.78852e-07
8.78851e-07
8.7889e-07
8.75564e-07
8.7979e-07
8.83072e-07
8.8482e-07
8.8169e-07
8.78527e-07
8.77664e-07
8.77816e-07
8.7786e-07
8.79788e-07
8.8061e-07
8.82519e-07
8.82514e-07
8.81224e-07
8.80503e-07
8.83067e-07
8.75479e-07
8.75057e-07
8.76369e-07
8.744e-07
8.74702e-07
8.74733e-07
8.74057e-07
8.74973e-07
8.75321e-07
8.76371e-07
8.76004e-07
8.69631e-07
8.69617e-07
8.69617e-07
8.69631e-07
8.72481e-07
8.72192e-07
8.74398e-07
8.69631e-07
8.69498e-07
8.69509e-07
8.69506e-07
8.69501e-07
8.69633e-07
8.69019e-07
8.73025e-07
8.7548e-07
8.74703e-07
8.69618e-07
8.69506e-07
8.69509e-07
8.69508e-07
8.69508e-07
8.69618e-07
8.67841e-07
8.72949e-07
8.75058e-07
8.74733e-07
8.69617e-07
8.69505e-07
8.69508e-07
8.69507e-07
8.69508e-07
8.69618e-07
8.67905e-07
8.71657e-07
8.74056e-07
8.69632e-07
8.69499e-07
8.69508e-07
8.69505e-07
8.69501e-07
8.69632e-07
8.68083e-07
8.7094e-07
8.74969e-07
8.72481e-07
8.69633e-07
8.69619e-07
8.69618e-07
8.69633e-07
8.65753e-07
8.70134e-07
8.73515e-07
8.75317e-07
8.7219e-07
8.69021e-07
8.67842e-07
8.67902e-07
8.68079e-07
8.70131e-07
8.71079e-07
8.73028e-07
8.72946e-07
8.71657e-07
8.70939e-07
8.73518e-07
8.66118e-07
8.65692e-07
8.67013e-07
8.65078e-07
8.65405e-07
8.65443e-07
8.64717e-07
8.65614e-07
8.65955e-07
8.67009e-07
8.66713e-07
8.60324e-07
8.60322e-07
8.60323e-07
8.60325e-07
8.63123e-07
8.62824e-07
8.65077e-07
8.60324e-07
8.60272e-07
8.60286e-07
8.60284e-07
8.60274e-07
8.60325e-07
8.5963e-07
8.63666e-07
8.66119e-07
8.65405e-07
8.60322e-07
8.60285e-07
8.60287e-07
8.60285e-07
8.60286e-07
8.60323e-07
8.58397e-07
8.63572e-07
8.65693e-07
8.65441e-07
8.60322e-07
8.60285e-07
8.60286e-07
8.60285e-07
8.60287e-07
8.60323e-07
8.58471e-07
8.62285e-07
8.64714e-07
8.60324e-07
8.60273e-07
8.60285e-07
8.60283e-07
8.60274e-07
8.60325e-07
8.58693e-07
8.61561e-07
8.65615e-07
8.63123e-07
8.60325e-07
8.60323e-07
8.60323e-07
8.60325e-07
8.5634e-07
8.60769e-07
8.64143e-07
8.65955e-07
8.62824e-07
8.5963e-07
8.58396e-07
8.58467e-07
8.5869e-07
8.60766e-07
8.61713e-07
8.63664e-07
8.6357e-07
8.62285e-07
8.61562e-07
8.64143e-07
8.56805e-07
8.56378e-07
8.57697e-07
8.55776e-07
8.5611e-07
8.56147e-07
8.55402e-07
8.56301e-07
8.56639e-07
8.57696e-07
8.57421e-07
8.51023e-07
8.51022e-07
8.51023e-07
8.51021e-07
8.53807e-07
8.53507e-07
8.55775e-07
8.51022e-07
8.51005e-07
8.51008e-07
8.51009e-07
8.51004e-07
8.51021e-07
8.50312e-07
8.54357e-07
8.56805e-07
8.5611e-07
8.51022e-07
8.51009e-07
8.51012e-07
8.51013e-07
8.51009e-07
8.51023e-07
8.49061e-07
8.54252e-07
8.56378e-07
8.56148e-07
8.51024e-07
8.5101e-07
8.51012e-07
8.51013e-07
8.51009e-07
8.51023e-07
8.49136e-07
8.52968e-07
8.55404e-07
8.51022e-07
8.51005e-07
8.51008e-07
8.51009e-07
8.51005e-07
8.51021e-07
8.49374e-07
8.52241e-07
8.56299e-07
8.53807e-07
8.51022e-07
8.51023e-07
8.51022e-07
8.51022e-07
8.4701e-07
8.51452e-07
8.54824e-07
8.56638e-07
8.53508e-07
8.50312e-07
8.49059e-07
8.49132e-07
8.49369e-07
8.51447e-07
8.52392e-07
8.54352e-07
8.5425e-07
8.52967e-07
8.52241e-07
8.54819e-07
8.47506e-07
8.47078e-07
8.48397e-07
8.46483e-07
8.46819e-07
8.46854e-07
8.46101e-07
8.47e-07
8.47339e-07
8.48397e-07
8.48127e-07
8.41722e-07
8.41726e-07
8.41726e-07
8.41723e-07
8.44506e-07
8.44206e-07
8.46482e-07
8.41724e-07
8.41718e-07
8.41722e-07
8.41722e-07
8.41718e-07
8.41725e-07
8.41008e-07
8.45054e-07
8.47505e-07
8.4682e-07
8.41726e-07
8.41719e-07
8.41723e-07
8.41723e-07
8.41719e-07
8.41724e-07
8.39751e-07
8.4495e-07
8.47078e-07
8.46853e-07
8.41725e-07
8.41719e-07
8.41722e-07
8.41723e-07
8.41719e-07
8.41724e-07
8.39832e-07
8.43667e-07
8.46103e-07
8.41724e-07
8.41719e-07
8.41721e-07
8.41722e-07
8.41719e-07
8.41724e-07
8.40075e-07
8.42941e-07
8.46999e-07
8.44506e-07
8.41723e-07
8.41725e-07
8.41725e-07
8.41723e-07
8.37709e-07
8.42154e-07
8.45522e-07
8.47338e-07
8.44206e-07
8.41009e-07
8.39752e-07
8.39832e-07
8.40073e-07
8.4215e-07
8.43091e-07
8.4505e-07
8.44951e-07
8.43667e-07
8.42939e-07
8.45518e-07
8.38211e-07
8.37783e-07
8.39102e-07
8.37188e-07
8.37526e-07
8.37558e-07
8.36805e-07
8.37704e-07
8.38043e-07
8.39102e-07
8.38833e-07
8.32428e-07
8.32428e-07
8.32428e-07
8.32429e-07
8.3521e-07
8.34911e-07
8.37188e-07
8.32428e-07
8.32426e-07
8.32427e-07
8.32427e-07
8.32428e-07
8.32428e-07
8.31715e-07
8.3576e-07
8.38209e-07
8.37527e-07
8.32428e-07
8.32428e-07
8.32427e-07
8.32427e-07
8.32428e-07
8.32428e-07
8.30456e-07
8.35656e-07
8.37783e-07
8.37558e-07
8.32428e-07
8.32427e-07
8.32428e-07
8.32427e-07
8.32428e-07
8.32429e-07
8.30537e-07
8.34372e-07
8.36806e-07
8.32428e-07
8.32427e-07
8.32428e-07
8.32427e-07
8.32427e-07
8.32428e-07
8.30782e-07
8.33644e-07
8.37703e-07
8.3521e-07
8.32428e-07
8.32428e-07
8.32428e-07
8.32429e-07
8.28414e-07
8.32857e-07
8.36225e-07
8.38042e-07
8.3491e-07
8.31713e-07
8.30453e-07
8.30533e-07
8.30777e-07
8.32854e-07
8.33795e-07
8.35756e-07
8.35653e-07
8.34371e-07
8.33642e-07
8.36222e-07
8.28916e-07
8.28488e-07
8.29807e-07
8.27894e-07
8.28232e-07
8.28265e-07
8.27511e-07
8.2841e-07
8.28748e-07
8.29807e-07
8.29541e-07
8.23133e-07
8.23133e-07
8.23133e-07
8.23134e-07
8.25914e-07
8.25615e-07
8.27894e-07
8.23134e-07
8.23133e-07
8.23133e-07
8.23133e-07
8.23133e-07
8.23132e-07
8.22419e-07
8.26464e-07
8.28915e-07
8.28233e-07
8.23133e-07
8.23132e-07
8.23133e-07
8.23133e-07
8.23133e-07
8.23133e-07
8.2116e-07
8.26361e-07
8.28488e-07
8.28266e-07
8.23134e-07
8.23134e-07
8.23134e-07
8.23134e-07
8.23134e-07
8.23133e-07
8.21241e-07
8.25077e-07
8.27512e-07
8.23132e-07
8.23131e-07
8.23131e-07
8.23131e-07
8.23132e-07
8.23134e-07
8.21487e-07
8.2435e-07
8.28409e-07
8.25913e-07
8.23134e-07
8.23134e-07
8.23134e-07
8.23134e-07
8.1912e-07
8.23562e-07
8.2693e-07
8.28747e-07
8.25614e-07
8.22418e-07
8.21157e-07
8.21238e-07
8.21482e-07
8.23559e-07
8.24501e-07
8.26461e-07
8.26359e-07
8.25076e-07
8.24348e-07
8.26928e-07
8.19621e-07
8.19193e-07
8.20512e-07
8.186e-07
8.18939e-07
8.18971e-07
8.18215e-07
8.19115e-07
8.19453e-07
8.20512e-07
8.20246e-07
8.13839e-07
8.13839e-07
8.13839e-07
8.13838e-07
8.16619e-07
8.1632e-07
8.18599e-07
8.13838e-07
8.13837e-07
8.13837e-07
8.13838e-07
8.13837e-07
8.13838e-07
8.13124e-07
8.1717e-07
8.19621e-07
8.18938e-07
8.13839e-07
8.13839e-07
8.13839e-07
8.1384e-07
8.13839e-07
8.13839e-07
8.11865e-07
8.17066e-07
8.19193e-07
8.18971e-07
8.13838e-07
8.13838e-07
8.13838e-07
8.13839e-07
8.13837e-07
8.13839e-07
8.11947e-07
8.15782e-07
8.18217e-07
8.13839e-07
8.13838e-07
8.13839e-07
8.13839e-07
8.13838e-07
8.13839e-07
8.12193e-07
8.15055e-07
8.19114e-07
8.16618e-07
8.13838e-07
8.13838e-07
8.13839e-07
8.13838e-07
8.09826e-07
8.14268e-07
8.17635e-07
8.19452e-07
8.16319e-07
8.13123e-07
8.11861e-07
8.11943e-07
8.12188e-07
8.14265e-07
8.15206e-07
8.17167e-07
8.17064e-07
8.15781e-07
8.15053e-07
8.17632e-07
8.10327e-07
8.09898e-07
8.1122e-07
8.09306e-07
8.09644e-07
8.09676e-07
8.0892e-07
8.09821e-07
8.10158e-07
8.11218e-07
8.1095e-07
8.04543e-07
8.04543e-07
8.04543e-07
8.04543e-07
8.07324e-07
8.07026e-07
8.09305e-07
8.04543e-07
8.04544e-07
8.04544e-07
8.04544e-07
8.04544e-07
8.04543e-07
8.0383e-07
8.07876e-07
8.10326e-07
8.09644e-07
8.04543e-07
8.04544e-07
8.04544e-07
8.04544e-07
8.04544e-07
8.04544e-07
8.02571e-07
8.07772e-07
8.09899e-07
8.09676e-07
8.04543e-07
8.04544e-07
8.04544e-07
8.04544e-07
8.04544e-07
8.04544e-07
8.02653e-07
8.06488e-07
8.08921e-07
8.04543e-07
8.04544e-07
8.04544e-07
8.04544e-07
8.04544e-07
8.04543e-07
8.02899e-07
8.0576e-07
8.0982e-07
8.07323e-07
8.04543e-07
8.04544e-07
8.04544e-07
8.04543e-07
8.00532e-07
8.04974e-07
8.0834e-07
8.10158e-07
8.07025e-07
8.03829e-07
8.02566e-07
8.02648e-07
8.02894e-07
8.04971e-07
8.05911e-07
8.07872e-07
8.0777e-07
8.06487e-07
8.05759e-07
8.08337e-07
8.01031e-07
8.00604e-07
8.01923e-07
8.00011e-07
8.00349e-07
8.00381e-07
7.99626e-07
8.00525e-07
8.00863e-07
8.01923e-07
8.01656e-07
7.95249e-07
7.95249e-07
7.95249e-07
7.95248e-07
7.98029e-07
7.9773e-07
8.0001e-07
7.95248e-07
7.95249e-07
7.95249e-07
7.95249e-07
7.95249e-07
7.95249e-07
7.94535e-07
7.9858e-07
8.01031e-07
8.0035e-07
7.95249e-07
7.95249e-07
7.95249e-07
7.95249e-07
7.95249e-07
7.95249e-07
7.93276e-07
7.98477e-07
8.00604e-07
8.00382e-07
7.95249e-07
7.95249e-07
7.95249e-07
7.95249e-07
7.95249e-07
7.95249e-07
7.93359e-07
7.97194e-07
7.99627e-07
7.95249e-07
7.95249e-07
7.95249e-07
7.95249e-07
7.95249e-07
7.95249e-07
7.93604e-07
7.96465e-07
8.00525e-07
7.98028e-07
7.95249e-07
7.95248e-07
7.95248e-07
7.95249e-07
7.91237e-07
7.95679e-07
7.99045e-07
8.00863e-07
7.9773e-07
7.94534e-07
7.93272e-07
7.93354e-07
7.93599e-07
7.95676e-07
7.96617e-07
7.98577e-07
7.98475e-07
7.97192e-07
7.96464e-07
7.99043e-07
7.91737e-07
7.91309e-07
7.92631e-07
7.90716e-07
7.91055e-07
7.91087e-07
7.90333e-07
7.91229e-07
7.91568e-07
7.92629e-07
7.92362e-07
7.85954e-07
7.85954e-07
7.85954e-07
7.85954e-07
7.88735e-07
7.88436e-07
7.90716e-07
7.85954e-07
7.85954e-07
7.85954e-07
7.85954e-07
7.85954e-07
7.85954e-07
7.8524e-07
7.89286e-07
7.91737e-07
7.91055e-07
7.85954e-07
7.85954e-07
7.85955e-07
7.85955e-07
7.85954e-07
7.85954e-07
7.83982e-07
7.89183e-07
7.91309e-07
7.91087e-07
7.85954e-07
7.85954e-07
7.85954e-07
7.85954e-07
7.85954e-07
7.85954e-07
7.84064e-07
7.87899e-07
7.90332e-07
7.85954e-07
7.85954e-07
7.85955e-07
7.85955e-07
7.85954e-07
7.85954e-07
7.84309e-07
7.87171e-07
7.9123e-07
7.88733e-07
7.85954e-07
7.85954e-07
7.85954e-07
7.85954e-07
7.81943e-07
7.86384e-07
7.8975e-07
7.91568e-07
7.88435e-07
7.85239e-07
7.83977e-07
7.84058e-07
7.84304e-07
7.86381e-07
7.87322e-07
7.89283e-07
7.8918e-07
7.87897e-07
7.87169e-07
7.89748e-07
7.82443e-07
7.82015e-07
7.83335e-07
7.81422e-07
7.81761e-07
7.81792e-07
7.81039e-07
7.81935e-07
7.82274e-07
7.83334e-07
7.83068e-07
7.7666e-07
7.7666e-07
7.7666e-07
7.7666e-07
7.79441e-07
7.79142e-07
7.81422e-07
7.7666e-07
7.7666e-07
7.7666e-07
7.7666e-07
7.7666e-07
7.7666e-07
7.75947e-07
7.79992e-07
7.82443e-07
7.81761e-07
7.7666e-07
7.7666e-07
7.7666e-07
7.7666e-07
7.7666e-07
7.7666e-07
7.74688e-07
7.79889e-07
7.82015e-07
7.81793e-07
7.7666e-07
7.7666e-07
7.7666e-07
7.7666e-07
7.7666e-07
7.7666e-07
7.7477e-07
7.78605e-07
7.81038e-07
7.7666e-07
7.7666e-07
7.7666e-07
7.7666e-07
7.7666e-07
7.7666e-07
7.75015e-07
7.77877e-07
7.81936e-07
7.79439e-07
7.7666e-07
7.7666e-07
7.7666e-07
7.7666e-07
7.72649e-07
7.7709e-07
7.80456e-07
7.82274e-07
7.79141e-07
7.75945e-07
7.74683e-07
7.74764e-07
7.7501e-07
7.77087e-07
7.78028e-07
7.79989e-07
7.79887e-07
7.78603e-07
7.77875e-07
7.80454e-07
7.73149e-07
7.72721e-07
7.74041e-07
7.72129e-07
7.72467e-07
7.72499e-07
7.71745e-07
7.72643e-07
7.72982e-07
7.74041e-07
7.73774e-07
7.67366e-07
7.67366e-07
7.67366e-07
7.67366e-07
7.70147e-07
7.69848e-07
7.72128e-07
7.67366e-07
7.67366e-07
7.67366e-07
7.67366e-07
7.67366e-07
7.67366e-07
7.66653e-07
7.70698e-07
7.73149e-07
7.72467e-07
7.67366e-07
7.67366e-07
7.67366e-07
7.67366e-07
7.67366e-07
7.67366e-07
7.65394e-07
7.70595e-07
7.72721e-07
7.72499e-07
7.67366e-07
7.67366e-07
7.67366e-07
7.67366e-07
7.67366e-07
7.67366e-07
7.65476e-07
7.69311e-07
7.71744e-07
7.67366e-07
7.67366e-07
7.67366e-07
7.67366e-07
7.67366e-07
7.67366e-07
7.65722e-07
7.68583e-07
7.72642e-07
7.70145e-07
7.67366e-07
7.67366e-07
7.67366e-07
7.67366e-07
7.63355e-07
7.67796e-07
7.71162e-07
7.7298e-07
7.69847e-07
7.66651e-07
7.65389e-07
7.6547e-07
7.65716e-07
7.67793e-07
7.68734e-07
7.70695e-07
7.70593e-07
7.69309e-07
7.68581e-07
7.7116e-07
7.63855e-07
7.63427e-07
7.64747e-07
7.62834e-07
7.63173e-07
7.63204e-07
7.6245e-07
7.63347e-07
7.63686e-07
7.64746e-07
7.64479e-07
7.58072e-07
7.58072e-07
7.58072e-07
7.58072e-07
7.60852e-07
7.60554e-07
7.62833e-07
7.58072e-07
7.58072e-07
7.58072e-07
7.58072e-07
7.58072e-07
7.58072e-07
7.57358e-07
7.61404e-07
7.63854e-07
7.63173e-07
7.58072e-07
7.58072e-07
7.58072e-07
7.58072e-07
7.58072e-07
7.58072e-07
7.561e-07
7.61301e-07
7.63427e-07
7.63205e-07
7.58072e-07
7.58072e-07
7.58072e-07
7.58072e-07
7.58072e-07
7.58072e-07
7.56182e-07
7.60017e-07
7.6245e-07
7.58072e-07
7.58072e-07
7.58072e-07
7.58072e-07
7.58072e-07
7.58072e-07
7.56427e-07
7.59289e-07
7.63348e-07
7.60851e-07
7.58072e-07
7.58072e-07
7.58072e-07
7.58072e-07
7.5406e-07
7.58502e-07
7.61868e-07
7.63686e-07
7.60553e-07
7.57357e-07
7.56095e-07
7.56175e-07
7.56422e-07
7.58499e-07
7.5944e-07
7.614e-07
7.61298e-07
7.60015e-07
7.59287e-07
7.61866e-07
7.5456e-07
7.54132e-07
7.55452e-07
7.5354e-07
7.53878e-07
7.5391e-07
7.53156e-07
7.54054e-07
7.54391e-07
7.55452e-07
7.55185e-07
7.48777e-07
7.48778e-07
7.48778e-07
7.48777e-07
7.51558e-07
7.51259e-07
7.53539e-07
7.48777e-07
7.48777e-07
7.48777e-07
7.48777e-07
7.48777e-07
7.48777e-07
7.48064e-07
7.52109e-07
7.5456e-07
7.53878e-07
7.48777e-07
7.48777e-07
7.48777e-07
7.48777e-07
7.48777e-07
7.48777e-07
7.46805e-07
7.52006e-07
7.54133e-07
7.5391e-07
7.48777e-07
7.48777e-07
7.48777e-07
7.48777e-07
7.48777e-07
7.48777e-07
7.46887e-07
7.50722e-07
7.53155e-07
7.48777e-07
7.48777e-07
7.48777e-07
7.48777e-07
7.48777e-07
7.48777e-07
7.47133e-07
7.49994e-07
7.54053e-07
7.51556e-07
7.48777e-07
7.48777e-07
7.48777e-07
7.48777e-07
7.44766e-07
7.49207e-07
7.52573e-07
7.54391e-07
7.51259e-07
7.48062e-07
7.468e-07
7.46882e-07
7.47128e-07
7.49204e-07
7.50145e-07
7.52106e-07
7.52004e-07
7.50721e-07
7.49992e-07
7.52571e-07
7.45265e-07
7.44838e-07
7.46157e-07
7.44245e-07
7.44583e-07
7.44615e-07
7.43861e-07
7.44759e-07
7.45097e-07
7.46157e-07
7.4589e-07
7.39482e-07
7.39482e-07
7.39482e-07
7.39482e-07
7.42263e-07
7.41964e-07
7.44244e-07
7.39482e-07
7.39483e-07
7.39482e-07
7.39482e-07
7.39483e-07
7.39482e-07
7.38768e-07
7.42814e-07
7.45265e-07
7.44583e-07
7.39483e-07
7.39483e-07
7.39483e-07
7.39482e-07
7.39483e-07
7.39482e-07
7.3751e-07
7.42711e-07
7.44838e-07
7.44616e-07
7.39483e-07
7.39483e-07
7.39483e-07
7.39482e-07
7.39483e-07
7.39482e-07
7.37592e-07
7.41427e-07
7.43861e-07
7.39483e-07
7.39483e-07
7.39483e-07
7.39483e-07
7.39483e-07
7.39482e-07
7.37838e-07
7.40699e-07
7.44759e-07
7.42262e-07
7.39483e-07
7.39483e-07
7.39483e-07
7.39482e-07
7.35471e-07
7.39912e-07
7.43279e-07
7.45097e-07
7.41964e-07
7.38768e-07
7.37506e-07
7.37588e-07
7.37833e-07
7.3991e-07
7.4085e-07
7.42811e-07
7.42709e-07
7.41426e-07
7.40698e-07
7.43277e-07
7.35971e-07
7.35543e-07
7.36863e-07
7.3495e-07
7.35289e-07
7.3532e-07
7.34566e-07
7.35463e-07
7.35801e-07
7.36862e-07
7.36595e-07
7.30188e-07
7.30188e-07
7.30188e-07
7.30188e-07
7.32968e-07
7.32669e-07
7.34949e-07
7.30188e-07
7.30188e-07
7.30188e-07
7.30188e-07
7.30188e-07
7.30188e-07
7.29473e-07
7.33519e-07
7.3597e-07
7.35289e-07
7.30188e-07
7.30188e-07
7.30188e-07
7.30188e-07
7.30188e-07
7.30188e-07
7.28215e-07
7.33416e-07
7.35543e-07
7.35321e-07
7.30188e-07
7.30188e-07
7.30188e-07
7.30188e-07
7.30188e-07
7.30188e-07
7.28297e-07
7.32132e-07
7.34566e-07
7.30188e-07
7.30188e-07
7.30188e-07
7.30188e-07
7.30188e-07
7.30188e-07
7.28543e-07
7.31404e-07
7.35464e-07
7.32967e-07
7.30188e-07
7.30188e-07
7.30188e-07
7.30188e-07
7.26176e-07
7.30617e-07
7.33984e-07
7.35802e-07
7.32669e-07
7.29473e-07
7.2821e-07
7.28292e-07
7.28537e-07
7.30614e-07
7.31555e-07
7.33516e-07
7.33414e-07
7.3213e-07
7.31401e-07
7.33981e-07
7.26676e-07
7.26248e-07
7.27568e-07
7.25655e-07
7.25994e-07
7.26025e-07
7.25272e-07
7.26168e-07
7.26506e-07
7.27567e-07
7.273e-07
7.20893e-07
7.20893e-07
7.20893e-07
7.20893e-07
7.23674e-07
7.23375e-07
7.25655e-07
7.20893e-07
7.20893e-07
7.20893e-07
7.20893e-07
7.20893e-07
7.20893e-07
7.20179e-07
7.24225e-07
7.26676e-07
7.25994e-07
7.20893e-07
7.20893e-07
7.20893e-07
7.20893e-07
7.20893e-07
7.20893e-07
7.18921e-07
7.24122e-07
7.26248e-07
7.26026e-07
7.20893e-07
7.20893e-07
7.20893e-07
7.20893e-07
7.20893e-07
7.20893e-07
7.19003e-07
7.22838e-07
7.25271e-07
7.20893e-07
7.20893e-07
7.20893e-07
7.20893e-07
7.20893e-07
7.20893e-07
7.19248e-07
7.2211e-07
7.26169e-07
7.23672e-07
7.20893e-07
7.20893e-07
7.20893e-07
7.20893e-07
7.16882e-07
7.21323e-07
7.24689e-07
7.26507e-07
7.23374e-07
7.20178e-07
7.18918e-07
7.18999e-07
7.19244e-07
7.2132e-07
7.22261e-07
7.24222e-07
7.2412e-07
7.22836e-07
7.22107e-07
7.24687e-07
7.17382e-07
7.16954e-07
7.18274e-07
7.16361e-07
7.167e-07
7.16731e-07
7.15977e-07
7.16874e-07
7.17212e-07
7.18273e-07
7.18006e-07
7.11599e-07
7.11599e-07
7.11599e-07
7.11599e-07
7.1438e-07
7.14081e-07
7.1636e-07
7.11599e-07
7.11599e-07
7.11599e-07
7.11599e-07
7.11599e-07
7.11599e-07
7.10885e-07
7.1493e-07
7.17381e-07
7.167e-07
7.11599e-07
7.11599e-07
7.11599e-07
7.11599e-07
7.11599e-07
7.11599e-07
7.09627e-07
7.14827e-07
7.16954e-07
7.16732e-07
7.11599e-07
7.11599e-07
7.11599e-07
7.11599e-07
7.11599e-07
7.11599e-07
7.09709e-07
7.13544e-07
7.15977e-07
7.11599e-07
7.11599e-07
7.11599e-07
7.11599e-07
7.11599e-07
7.11599e-07
7.09954e-07
7.12815e-07
7.16875e-07
7.14378e-07
7.11599e-07
7.11599e-07
7.11599e-07
7.11599e-07
7.07587e-07
7.12029e-07
7.15395e-07
7.17213e-07
7.1408e-07
7.10884e-07
7.09623e-07
7.09704e-07
7.09949e-07
7.12026e-07
7.12966e-07
7.14927e-07
7.14825e-07
7.13542e-07
7.12813e-07
7.15393e-07
7.08088e-07
7.0766e-07
7.08979e-07
7.07067e-07
7.07406e-07
7.07437e-07
7.06683e-07
7.07579e-07
7.07918e-07
7.08979e-07
7.08712e-07
7.02305e-07
7.02305e-07
7.02305e-07
7.02305e-07
7.05086e-07
7.04787e-07
7.07066e-07
7.02305e-07
7.02305e-07
7.02305e-07
7.02305e-07
7.02305e-07
7.02305e-07
7.01591e-07
7.05636e-07
7.08087e-07
7.07405e-07
7.02305e-07
7.02305e-07
7.02305e-07
7.02305e-07
7.02305e-07
7.02305e-07
7.00332e-07
7.05533e-07
7.0766e-07
7.07438e-07
7.02305e-07
7.02305e-07
7.02305e-07
7.02305e-07
7.02305e-07
7.02305e-07
7.00414e-07
7.04249e-07
7.06683e-07
7.02305e-07
7.02305e-07
7.02305e-07
7.02305e-07
7.02305e-07
7.02305e-07
7.0066e-07
7.03521e-07
7.07581e-07
7.05084e-07
7.02305e-07
7.02305e-07
7.02305e-07
7.02305e-07
6.98293e-07
7.02735e-07
7.06101e-07
7.07919e-07
7.04786e-07
7.0159e-07
7.00329e-07
7.0041e-07
7.00655e-07
7.02732e-07
7.03672e-07
7.05633e-07
7.05531e-07
7.04248e-07
7.03519e-07
7.06098e-07
6.98794e-07
6.98366e-07
6.99685e-07
6.97773e-07
6.98112e-07
6.98143e-07
6.97389e-07
6.98286e-07
6.98624e-07
6.99685e-07
6.99418e-07
6.93011e-07
6.93011e-07
6.93011e-07
6.93011e-07
6.95792e-07
6.95493e-07
6.97772e-07
6.93011e-07
6.93011e-07
6.93011e-07
6.93011e-07
6.93011e-07
6.93011e-07
6.92297e-07
6.96343e-07
6.98793e-07
6.98111e-07
6.93011e-07
6.93011e-07
6.93011e-07
6.93011e-07
6.93011e-07
6.93011e-07
6.91039e-07
6.96239e-07
6.98366e-07
6.98144e-07
6.93011e-07
6.93011e-07
6.93011e-07
6.93011e-07
6.93011e-07
6.93011e-07
6.91121e-07
6.94956e-07
6.97389e-07
6.93011e-07
6.93011e-07
6.93011e-07
6.93011e-07
6.93011e-07
6.93011e-07
6.91366e-07
6.94227e-07
6.98287e-07
6.9579e-07
6.93011e-07
6.93011e-07
6.93011e-07
6.93011e-07
6.88999e-07
6.93441e-07
6.96807e-07
6.98625e-07
6.95492e-07
6.92296e-07
6.91035e-07
6.91116e-07
6.91361e-07
6.93438e-07
6.94378e-07
6.96339e-07
6.96237e-07
6.94954e-07
6.94225e-07
6.96804e-07
6.89499e-07
6.89071e-07
6.90391e-07
6.88478e-07
6.88817e-07
6.88848e-07
6.88094e-07
6.88991e-07
6.8933e-07
6.9039e-07
6.90123e-07
6.83716e-07
6.83716e-07
6.83716e-07
6.83716e-07
6.86498e-07
6.86198e-07
6.88478e-07
6.83716e-07
6.83716e-07
6.83716e-07
6.83716e-07
6.83716e-07
6.83716e-07
6.83002e-07
6.87049e-07
6.89499e-07
6.88817e-07
6.83716e-07
6.83716e-07
6.83716e-07
6.83716e-07
6.83716e-07
6.83716e-07
6.81744e-07
6.86945e-07
6.89071e-07
6.88849e-07
6.83716e-07
6.83716e-07
6.83716e-07
6.83716e-07
6.83716e-07
6.83716e-07
6.81826e-07
6.85661e-07
6.88094e-07
6.83716e-07
6.83716e-07
6.83716e-07
6.83716e-07
6.83716e-07
6.83716e-07
6.82072e-07
6.84933e-07
6.88992e-07
6.86495e-07
6.83716e-07
6.83716e-07
6.83716e-07
6.83716e-07
6.79705e-07
6.84146e-07
6.87512e-07
6.8933e-07
6.86197e-07
6.83002e-07
6.81741e-07
6.81822e-07
6.82066e-07
6.84143e-07
6.85084e-07
6.87045e-07
6.86943e-07
6.8566e-07
6.8493e-07
6.8751e-07
6.80204e-07
6.79776e-07
6.81095e-07
6.79183e-07
6.79522e-07
6.79554e-07
6.78799e-07
6.79696e-07
6.80034e-07
6.81095e-07
6.80829e-07
6.74421e-07
6.74421e-07
6.74421e-07
6.74421e-07
6.77202e-07
6.76903e-07
6.79183e-07
6.74421e-07
6.74422e-07
6.74421e-07
6.74421e-07
6.74421e-07
6.74421e-07
6.73707e-07
6.77754e-07
6.80204e-07
6.79522e-07
6.74421e-07
6.74421e-07
6.74421e-07
6.74421e-07
6.74421e-07
6.74421e-07
6.72449e-07
6.7765e-07
6.79776e-07
6.79554e-07
6.74421e-07
6.74421e-07
6.74421e-07
6.74421e-07
6.74421e-07
6.74421e-07
6.72531e-07
6.76366e-07
6.78799e-07
6.74421e-07
6.74422e-07
6.74421e-07
6.74421e-07
6.74422e-07
6.74421e-07
6.72777e-07
6.75638e-07
6.79697e-07
6.772e-07
6.74421e-07
6.74421e-07
6.74421e-07
6.74421e-07
6.7041e-07
6.74851e-07
6.78217e-07
6.80035e-07
6.76902e-07
6.73707e-07
6.72446e-07
6.72527e-07
6.72772e-07
6.74848e-07
6.75789e-07
6.7775e-07
6.77648e-07
6.76365e-07
6.75635e-07
6.78215e-07
6.7091e-07
6.70482e-07
6.71802e-07
6.69889e-07
6.70228e-07
6.70259e-07
6.69504e-07
6.70402e-07
6.7074e-07
6.71801e-07
6.71535e-07
6.65127e-07
6.65127e-07
6.65127e-07
6.65127e-07
6.67908e-07
6.67609e-07
6.69889e-07
6.65127e-07
6.65127e-07
6.65127e-07
6.65127e-07
6.65127e-07
6.65127e-07
6.64413e-07
6.6846e-07
6.7091e-07
6.70228e-07
6.65127e-07
6.65127e-07
6.65127e-07
6.65127e-07
6.65127e-07
6.65127e-07
6.63155e-07
6.68356e-07
6.70482e-07
6.7026e-07
6.65127e-07
6.65127e-07
6.65127e-07
6.65127e-07
6.65127e-07
6.65127e-07
6.63237e-07
6.67072e-07
6.69505e-07
6.65127e-07
6.65127e-07
6.65127e-07
6.65127e-07
6.65127e-07
6.65127e-07
6.63482e-07
6.66344e-07
6.70403e-07
6.67906e-07
6.65127e-07
6.65127e-07
6.65127e-07
6.65127e-07
6.61116e-07
6.65557e-07
6.68923e-07
6.70741e-07
6.67608e-07
6.64412e-07
6.63151e-07
6.63232e-07
6.63477e-07
6.65554e-07
6.66495e-07
6.68456e-07
6.68353e-07
6.6707e-07
6.66341e-07
6.6892e-07
6.61615e-07
6.61188e-07
6.62509e-07
6.60594e-07
6.60933e-07
6.60965e-07
6.60209e-07
6.61108e-07
6.61448e-07
6.62507e-07
6.62241e-07
6.55833e-07
6.55833e-07
6.55833e-07
6.55833e-07
6.58614e-07
6.58315e-07
6.60594e-07
6.55833e-07
6.55833e-07
6.55833e-07
6.55833e-07
6.55833e-07
6.55833e-07
6.55119e-07
6.59166e-07
6.61615e-07
6.60934e-07
6.55833e-07
6.55833e-07
6.55833e-07
6.55833e-07
6.55833e-07
6.55833e-07
6.53861e-07
6.59062e-07
6.61188e-07
6.60966e-07
6.55833e-07
6.55833e-07
6.55833e-07
6.55833e-07
6.55833e-07
6.55833e-07
6.53943e-07
6.57778e-07
6.60211e-07
6.55833e-07
6.55833e-07
6.55833e-07
6.55833e-07
6.55833e-07
6.55833e-07
6.54188e-07
6.57049e-07
6.61109e-07
6.58612e-07
6.55832e-07
6.55833e-07
6.55832e-07
6.55833e-07
6.51821e-07
6.56263e-07
6.59629e-07
6.61447e-07
6.58314e-07
6.55118e-07
6.53857e-07
6.53938e-07
6.54183e-07
6.5626e-07
6.572e-07
6.59161e-07
6.59059e-07
6.57776e-07
6.57047e-07
6.59626e-07
6.52321e-07
6.51893e-07
6.53214e-07
6.51299e-07
6.51639e-07
6.5167e-07
6.50915e-07
6.51813e-07
6.52153e-07
6.53213e-07
6.52946e-07
6.46538e-07
6.46538e-07
6.46538e-07
6.46538e-07
6.4932e-07
6.4902e-07
6.513e-07
6.46538e-07
6.46539e-07
6.46538e-07
6.46538e-07
6.46538e-07
6.46538e-07
6.45824e-07
6.49871e-07
6.52321e-07
6.51639e-07
6.46538e-07
6.46538e-07
6.46538e-07
6.46538e-07
6.46538e-07
6.46538e-07
6.44566e-07
6.49767e-07
6.51893e-07
6.51671e-07
6.46538e-07
6.46538e-07
6.46538e-07
6.46538e-07
6.46538e-07
6.46538e-07
6.44648e-07
6.48483e-07
6.50916e-07
6.46538e-07
6.46538e-07
6.46538e-07
6.46538e-07
6.46538e-07
6.46538e-07
6.44894e-07
6.47755e-07
6.51814e-07
6.49317e-07
6.46538e-07
6.46538e-07
6.46538e-07
6.46538e-07
6.42527e-07
6.46968e-07
6.50334e-07
6.52152e-07
6.49019e-07
6.45823e-07
6.44562e-07
6.44643e-07
6.44888e-07
6.46965e-07
6.47906e-07
6.49867e-07
6.49765e-07
6.48481e-07
6.47752e-07
6.50331e-07
6.43026e-07
6.42598e-07
6.4392e-07
6.42005e-07
6.42344e-07
6.42376e-07
6.4162e-07
6.4252e-07
6.42859e-07
6.43919e-07
6.43653e-07
6.37244e-07
6.37244e-07
6.37244e-07
6.37244e-07
6.40024e-07
6.39726e-07
6.42006e-07
6.37244e-07
6.37244e-07
6.37244e-07
6.37244e-07
6.37244e-07
6.37244e-07
6.3653e-07
6.40577e-07
6.43027e-07
6.42345e-07
6.37244e-07
6.37244e-07
6.37244e-07
6.37244e-07
6.37244e-07
6.37244e-07
6.35272e-07
6.40473e-07
6.42599e-07
6.42377e-07
6.37244e-07
6.37244e-07
6.37244e-07
6.37244e-07
6.37244e-07
6.37244e-07
6.35354e-07
6.39189e-07
6.41622e-07
6.37244e-07
6.37244e-07
6.37244e-07
6.37244e-07
6.37244e-07
6.37244e-07
6.35599e-07
6.38461e-07
6.4252e-07
6.40023e-07
6.37244e-07
6.37244e-07
6.37244e-07
6.37244e-07
6.33233e-07
6.37674e-07
6.4104e-07
6.42858e-07
6.39725e-07
6.36528e-07
6.35268e-07
6.35348e-07
6.35594e-07
6.37671e-07
6.38612e-07
6.40573e-07
6.4047e-07
6.39187e-07
6.38458e-07
6.41037e-07
6.33733e-07
6.33305e-07
6.34625e-07
6.32712e-07
6.33051e-07
6.33082e-07
6.32327e-07
6.33224e-07
6.33563e-07
6.34624e-07
6.34357e-07
6.2795e-07
6.2795e-07
6.2795e-07
6.2795e-07
6.3073e-07
6.30431e-07
6.32712e-07
6.2795e-07
6.2795e-07
6.2795e-07
6.2795e-07
6.2795e-07
6.2795e-07
6.27236e-07
6.31282e-07
6.33733e-07
6.33051e-07
6.2795e-07
6.2795e-07
6.2795e-07
6.2795e-07
6.2795e-07
6.2795e-07
6.25978e-07
6.31178e-07
6.33305e-07
6.33083e-07
6.2795e-07
6.2795e-07
6.2795e-07
6.2795e-07
6.2795e-07
6.2795e-07
6.2606e-07
6.29895e-07
6.32328e-07
6.2795e-07
6.2795e-07
6.2795e-07
6.2795e-07
6.2795e-07
6.2795e-07
6.26305e-07
6.29166e-07
6.33226e-07
6.30729e-07
6.2795e-07
6.2795e-07
6.2795e-07
6.2795e-07
6.23938e-07
6.2838e-07
6.31746e-07
6.33564e-07
6.30431e-07
6.27235e-07
6.25975e-07
6.26055e-07
6.263e-07
6.28377e-07
6.29317e-07
6.31279e-07
6.31177e-07
6.29894e-07
6.29164e-07
6.31743e-07
6.24439e-07
6.24011e-07
6.2533e-07
6.23417e-07
6.23756e-07
6.23787e-07
6.23032e-07
6.2393e-07
6.2427e-07
6.2533e-07
6.25063e-07
6.18656e-07
6.18655e-07
6.18655e-07
6.18655e-07
6.21435e-07
6.21137e-07
6.23417e-07
6.18656e-07
6.18655e-07
6.18655e-07
6.18655e-07
6.18655e-07
6.18655e-07
6.17941e-07
6.21988e-07
6.24438e-07
6.23756e-07
6.18655e-07
6.18655e-07
6.18655e-07
6.18655e-07
6.18655e-07
6.18655e-07
6.16683e-07
6.21884e-07
6.24011e-07
6.23788e-07
6.18655e-07
6.18655e-07
6.18655e-07
6.18655e-07
6.18655e-07
6.18655e-07
6.16765e-07
6.206e-07
6.23033e-07
6.18655e-07
6.18655e-07
6.18655e-07
6.18655e-07
6.18655e-07
6.18655e-07
6.17011e-07
6.19872e-07
6.23931e-07
6.21435e-07
6.18655e-07
6.18655e-07
6.18655e-07
6.18655e-07
6.14644e-07
6.19085e-07
6.22451e-07
6.24269e-07
6.21137e-07
6.1794e-07
6.1668e-07
6.16761e-07
6.17006e-07
6.19082e-07
6.20023e-07
6.21984e-07
6.21882e-07
6.20599e-07
6.19869e-07
6.22449e-07
6.15143e-07
6.14716e-07
6.16035e-07
6.14122e-07
6.1446e-07
6.14492e-07
6.13737e-07
6.14635e-07
6.14975e-07
6.16035e-07
6.15768e-07
6.09361e-07
6.09361e-07
6.0936e-07
6.0936e-07
6.1214e-07
6.11842e-07
6.14122e-07
6.0936e-07
6.09361e-07
6.0936e-07
6.0936e-07
6.09361e-07
6.0936e-07
6.08646e-07
6.12693e-07
6.15143e-07
6.14461e-07
6.0936e-07
6.0936e-07
6.0936e-07
6.0936e-07
6.0936e-07
6.0936e-07
6.07388e-07
6.12589e-07
6.14716e-07
6.14493e-07
6.0936e-07
6.0936e-07
6.0936e-07
6.0936e-07
6.0936e-07
6.0936e-07
6.0747e-07
6.11305e-07
6.13738e-07
6.0936e-07
6.09361e-07
6.0936e-07
6.0936e-07
6.09361e-07
6.0936e-07
6.07716e-07
6.10577e-07
6.14637e-07
6.1214e-07
6.0936e-07
6.0936e-07
6.0936e-07
6.0936e-07
6.05349e-07
6.0979e-07
6.13156e-07