/*--------------------------------*- C++ -*----------------------------------*\
| =========                 |                                                 |
| \\      /  F ield         | OpenFOAM: The Open Source CFD Toolbox           |
|  \\    /   O peration     | Version:  v2012                                 |
|   \\  /    A nd           | Website:  www.openfoam.com                      |
|    \\/     M anipulation  |                                                 |
\*---------------------------------------------------------------------------*/
FoamFile
{
    version     2.0;
    format      ascii;
    class       volScalarField;
    location    "0.15";
    object      p;
}
// * * * * * * * * * * * * * * * * * * * * * * * * * * * * * * * * * * * * * //

dimensions      [0 2 -2 0 0 0 0];


internalField   nonuniform List<scalar> 
189320
(
-1.08255e-06
-1.07605e-06
-1.09105e-06
-1.09255e-06
-1.10065e-06
-1.10319e-06
-1.09734e-06
-1.09597e-06
-1.09504e-06
-1.09106e-06
-1.10207e-06
-1.10251e-06
-1.10548e-06
-1.10613e-06
-1.10407e-06
-1.10218e-06
-1.09489e-06
-1.09256e-06
-1.10251e-06
-1.10695e-06
-1.10893e-06
-1.10931e-06
-1.10807e-06
-1.10477e-06
-1.10188e-06
-1.09339e-06
-1.08277e-06
-1.10069e-06
-1.10549e-06
-1.10893e-06
-1.1102e-06
-1.1104e-06
-1.10973e-06
-1.10756e-06
-1.10231e-06
-1.09384e-06
-1.07622e-06
-1.10323e-06
-1.10613e-06
-1.10931e-06
-1.11039e-06
-1.11058e-06
-1.11003e-06
-1.10818e-06
-1.10326e-06
-1.09528e-06
-1.09736e-06
-1.10407e-06
-1.10806e-06
-1.10972e-06
-1.11002e-06
-1.10907e-06
-1.10639e-06
-1.10189e-06
-1.08237e-06
-1.09598e-06
-1.10217e-06
-1.10475e-06
-1.10753e-06
-1.10816e-06
-1.10638e-06
-1.1025e-06
-1.10153e-06
-1.09332e-06
-1.09503e-06
-1.09486e-06
-1.10183e-06
-1.10224e-06
-1.10321e-06
-1.10187e-06
-1.10152e-06
-1.1017e-06
-1.09334e-06
-1.09375e-06
-1.09514e-06
-1.08231e-06
-1.09327e-06
-1.10319e-06
-1.10354e-06
-1.09994e-06
-1.09721e-06
-1.097e-06
-1.09577e-06
-1.09709e-06
-1.1055e-06
-1.10379e-06
-1.09994e-06
-1.0893e-06
-1.10106e-06
-1.10375e-06
-1.10375e-06
-1.1011e-06
-1.10397e-06
-1.10631e-06
-1.09721e-06
-1.10108e-06
-1.1097e-06
-1.10971e-06
-1.10972e-06
-1.10971e-06
-1.10106e-06
-1.11757e-06
-1.11211e-06
-1.10318e-06
-1.09699e-06
-1.10375e-06
-1.10972e-06
-1.1094e-06
-1.1094e-06
-1.10971e-06
-1.10378e-06
-1.11831e-06
-1.11248e-06
-1.10353e-06
-1.09575e-06
-1.10373e-06
-1.10972e-06
-1.1094e-06
-1.1094e-06
-1.10971e-06
-1.10376e-06
-1.11871e-06
-1.10736e-06
-1.09707e-06
-1.10109e-06
-1.1097e-06
-1.1097e-06
-1.10972e-06
-1.1097e-06
-1.10107e-06
-1.11893e-06
-1.11721e-06
-1.10547e-06
-1.10395e-06
-1.10103e-06
-1.10373e-06
-1.10375e-06
-1.10108e-06
-1.13231e-06
-1.11414e-06
-1.1088e-06
-1.10377e-06
-1.1063e-06
-1.11756e-06
-1.1183e-06
-1.11872e-06
-1.11897e-06
-1.11419e-06
-1.11791e-06
-1.11209e-06
-1.11246e-06
-1.10735e-06
-1.11721e-06
-1.10879e-06
-1.0935e-06
-1.09415e-06
-1.09001e-06
-1.08646e-06
-1.08535e-06
-1.08409e-06
-1.08646e-06
-1.09553e-06
-1.09421e-06
-1.09002e-06
-1.07779e-06
-1.08914e-06
-1.08964e-06
-1.08965e-06
-1.08915e-06
-1.09408e-06
-1.0953e-06
-1.08646e-06
-1.08914e-06
-1.09323e-06
-1.09351e-06
-1.09353e-06
-1.09323e-06
-1.08914e-06
-1.1078e-06
-1.10298e-06
-1.0935e-06
-1.08535e-06
-1.08964e-06
-1.09353e-06
-1.09364e-06
-1.09365e-06
-1.09352e-06
-1.08966e-06
-1.1129e-06
-1.10262e-06
-1.09414e-06
-1.08408e-06
-1.08963e-06
-1.09353e-06
-1.09365e-06
-1.09365e-06
-1.09352e-06
-1.08965e-06
-1.11334e-06
-1.09737e-06
-1.08646e-06
-1.08914e-06
-1.09322e-06
-1.09351e-06
-1.09354e-06
-1.09323e-06
-1.08914e-06
-1.11202e-06
-1.10873e-06
-1.0955e-06
-1.09407e-06
-1.08912e-06
-1.08964e-06
-1.08965e-06
-1.08914e-06
-1.12017e-06
-1.10383e-06
-1.10001e-06
-1.09419e-06
-1.09528e-06
-1.10779e-06
-1.11288e-06
-1.11333e-06
-1.11202e-06
-1.10387e-06
-1.10866e-06
-1.10296e-06
-1.10261e-06
-1.09736e-06
-1.10872e-06
-1.10001e-06
-1.08173e-06
-1.08236e-06
-1.07857e-06
-1.07462e-06
-1.07324e-06
-1.07187e-06
-1.07458e-06
-1.08392e-06
-1.08283e-06
-1.07856e-06
-1.06555e-06
-1.07711e-06
-1.07721e-06
-1.07721e-06
-1.07711e-06
-1.08278e-06
-1.08389e-06
-1.07462e-06
-1.07711e-06
-1.07852e-06
-1.0787e-06
-1.07872e-06
-1.07852e-06
-1.07711e-06
-1.09628e-06
-1.09139e-06
-1.08173e-06
-1.07325e-06
-1.0772e-06
-1.07871e-06
-1.07886e-06
-1.07887e-06
-1.07871e-06
-1.07722e-06
-1.10144e-06
-1.09086e-06
-1.08236e-06
-1.07187e-06
-1.0772e-06
-1.07872e-06
-1.07887e-06
-1.07887e-06
-1.07871e-06
-1.07721e-06
-1.10178e-06
-1.08548e-06
-1.07459e-06
-1.0771e-06
-1.07852e-06
-1.07871e-06
-1.07872e-06
-1.07852e-06
-1.07712e-06
-1.10031e-06
-1.09707e-06
-1.08392e-06
-1.08278e-06
-1.0771e-06
-1.0772e-06
-1.07721e-06
-1.07711e-06
-1.10923e-06
-1.09207e-06
-1.08857e-06
-1.08282e-06
-1.08388e-06
-1.09627e-06
-1.10143e-06
-1.10178e-06
-1.10033e-06
-1.0921e-06
-1.0974e-06
-1.09138e-06
-1.09086e-06
-1.08547e-06
-1.09707e-06
-1.08857e-06
-1.06952e-06
-1.07014e-06
-1.06646e-06
-1.06237e-06
-1.06089e-06
-1.05947e-06
-1.06236e-06
-1.07177e-06
-1.07074e-06
-1.06646e-06
-1.05312e-06
-1.06478e-06
-1.06481e-06
-1.06481e-06
-1.06478e-06
-1.07071e-06
-1.0718e-06
-1.06237e-06
-1.06478e-06
-1.06529e-06
-1.06535e-06
-1.06535e-06
-1.06529e-06
-1.06479e-06
-1.08408e-06
-1.07925e-06
-1.06953e-06
-1.06089e-06
-1.06481e-06
-1.06535e-06
-1.0654e-06
-1.0654e-06
-1.06535e-06
-1.06481e-06
-1.08928e-06
-1.07866e-06
-1.07014e-06
-1.05946e-06
-1.06481e-06
-1.06535e-06
-1.0654e-06
-1.06541e-06
-1.06535e-06
-1.06481e-06
-1.08957e-06
-1.07325e-06
-1.06235e-06
-1.06478e-06
-1.06529e-06
-1.06535e-06
-1.06535e-06
-1.0653e-06
-1.06479e-06
-1.08795e-06
-1.08492e-06
-1.07177e-06
-1.07071e-06
-1.06478e-06
-1.06481e-06
-1.06481e-06
-1.06478e-06
-1.09729e-06
-1.07988e-06
-1.07648e-06
-1.07075e-06
-1.07181e-06
-1.08407e-06
-1.08927e-06
-1.08958e-06
-1.08796e-06
-1.07991e-06
-1.08536e-06
-1.07924e-06
-1.07866e-06
-1.07325e-06
-1.08491e-06
-1.07647e-06
-1.05716e-06
-1.05777e-06
-1.05412e-06
-1.04998e-06
-1.04846e-06
-1.04701e-06
-1.04998e-06
-1.05943e-06
-1.05843e-06
-1.05413e-06
-1.04065e-06
-1.05236e-06
-1.05237e-06
-1.05237e-06
-1.05237e-06
-1.05838e-06
-1.05949e-06
-1.04999e-06
-1.05237e-06
-1.05255e-06
-1.05258e-06
-1.05258e-06
-1.05256e-06
-1.05237e-06
-1.07171e-06
-1.06691e-06
-1.05716e-06
-1.04846e-06
-1.05237e-06
-1.05258e-06
-1.05259e-06
-1.05259e-06
-1.05258e-06
-1.05237e-06
-1.0769e-06
-1.0663e-06
-1.05777e-06
-1.04701e-06
-1.05237e-06
-1.05258e-06
-1.05259e-06
-1.05259e-06
-1.05258e-06
-1.05237e-06
-1.07719e-06
-1.06087e-06
-1.04998e-06
-1.05237e-06
-1.05255e-06
-1.05258e-06
-1.05258e-06
-1.05255e-06
-1.05237e-06
-1.07553e-06
-1.07257e-06
-1.05943e-06
-1.05839e-06
-1.05237e-06
-1.05237e-06
-1.05237e-06
-1.05237e-06
-1.08503e-06
-1.06754e-06
-1.06415e-06
-1.05844e-06
-1.05948e-06
-1.07171e-06
-1.0769e-06
-1.07719e-06
-1.07555e-06
-1.06757e-06
-1.07307e-06
-1.06691e-06
-1.0663e-06
-1.06087e-06
-1.07257e-06
-1.06415e-06
-1.04473e-06
-1.04535e-06
-1.04172e-06
-1.03755e-06
-1.03599e-06
-1.03455e-06
-1.03756e-06
-1.04702e-06
-1.04602e-06
-1.04172e-06
-1.02819e-06
-1.03993e-06
-1.03992e-06
-1.03992e-06
-1.03993e-06
-1.04597e-06
-1.04708e-06
-1.03756e-06
-1.03992e-06
-1.03999e-06
-1.04e-06
-1.04e-06
-1.03999e-06
-1.03992e-06
-1.05929e-06
-1.0545e-06
-1.04474e-06
-1.03599e-06
-1.03992e-06
-1.04e-06
-1.04001e-06
-1.04001e-06
-1.04e-06
-1.03993e-06
-1.06447e-06
-1.05388e-06
-1.04535e-06
-1.03455e-06
-1.03992e-06
-1.04e-06
-1.04001e-06
-1.04001e-06
-1.04e-06
-1.03992e-06
-1.06475e-06
-1.04845e-06
-1.03757e-06
-1.03992e-06
-1.03999e-06
-1.04e-06
-1.04e-06
-1.03999e-06
-1.03993e-06
-1.0631e-06
-1.06017e-06
-1.04702e-06
-1.04598e-06
-1.03993e-06
-1.03992e-06
-1.03993e-06
-1.03993e-06
-1.07266e-06
-1.05513e-06
-1.05174e-06
-1.04603e-06
-1.04708e-06
-1.05929e-06
-1.06448e-06
-1.06475e-06
-1.06311e-06
-1.05515e-06
-1.06067e-06
-1.05451e-06
-1.05388e-06
-1.04844e-06
-1.06017e-06
-1.05174e-06
-1.03229e-06
-1.03291e-06
-1.02928e-06
-1.02511e-06
-1.02353e-06
-1.0221e-06
-1.02513e-06
-1.03458e-06
-1.03359e-06
-1.02928e-06
-1.01573e-06
-1.02748e-06
-1.02748e-06
-1.02748e-06
-1.02748e-06
-1.03354e-06
-1.03465e-06
-1.02511e-06
-1.02748e-06
-1.0275e-06
-1.02751e-06
-1.02751e-06
-1.0275e-06
-1.02748e-06
-1.04685e-06
-1.04206e-06
-1.0323e-06
-1.02353e-06
-1.02748e-06
-1.0275e-06
-1.02751e-06
-1.02751e-06
-1.0275e-06
-1.02748e-06
-1.05202e-06
-1.04144e-06
-1.03291e-06
-1.0221e-06
-1.02748e-06
-1.02751e-06
-1.02751e-06
-1.02751e-06
-1.0275e-06
-1.02748e-06
-1.0523e-06
-1.036e-06
-1.02513e-06
-1.02748e-06
-1.0275e-06
-1.0275e-06
-1.02751e-06
-1.0275e-06
-1.02748e-06
-1.05064e-06
-1.04773e-06
-1.03458e-06
-1.03354e-06
-1.02748e-06
-1.02748e-06
-1.02748e-06
-1.02748e-06
-1.06025e-06
-1.0427e-06
-1.03931e-06
-1.0336e-06
-1.03465e-06
-1.04685e-06
-1.05202e-06
-1.0523e-06
-1.05065e-06
-1.04272e-06
-1.04824e-06
-1.04207e-06
-1.04144e-06
-1.036e-06
-1.04773e-06
-1.03932e-06
-1.01985e-06
-1.02046e-06
-1.01684e-06
-1.01267e-06
-1.01108e-06
-1.00965e-06
-1.01268e-06
-1.02214e-06
-1.02115e-06
-1.01684e-06
-1.00328e-06
-1.01503e-06
-1.01503e-06
-1.01503e-06
-1.01503e-06
-1.0211e-06
-1.02221e-06
-1.01267e-06
-1.01503e-06
-1.01504e-06
-1.01505e-06
-1.01504e-06
-1.01504e-06
-1.01503e-06
-1.03441e-06
-1.02962e-06
-1.01985e-06
-1.01108e-06
-1.01503e-06
-1.01505e-06
-1.01505e-06
-1.01505e-06
-1.01504e-06
-1.01503e-06
-1.03959e-06
-1.029e-06
-1.02046e-06
-1.00965e-06
-1.01503e-06
-1.01504e-06
-1.01504e-06
-1.01505e-06
-1.01504e-06
-1.01503e-06
-1.03986e-06
-1.02356e-06
-1.01268e-06
-1.01503e-06
-1.01505e-06
-1.01505e-06
-1.01505e-06
-1.01504e-06
-1.01503e-06
-1.03819e-06
-1.03528e-06
-1.02213e-06
-1.0211e-06
-1.01503e-06
-1.01503e-06
-1.01503e-06
-1.01503e-06
-1.04781e-06
-1.03026e-06
-1.02686e-06
-1.02116e-06
-1.02221e-06
-1.03441e-06
-1.03958e-06
-1.03986e-06
-1.03821e-06
-1.03028e-06
-1.0358e-06
-1.02962e-06
-1.02899e-06
-1.02355e-06
-1.03528e-06
-1.02687e-06
-1.0074e-06
-1.00802e-06
-1.0044e-06
-1.00022e-06
-9.98632e-07
-9.97195e-07
-1.00024e-06
-1.00969e-06
-1.00871e-06
-1.00439e-06
-9.9083e-07
-1.00258e-06
-1.00258e-06
-1.00258e-06
-1.00258e-06
-1.00865e-06
-1.00977e-06
-1.00022e-06
-1.00258e-06
-1.00259e-06
-1.00259e-06
-1.00259e-06
-1.00259e-06
-1.00258e-06
-1.02196e-06
-1.01718e-06
-1.00741e-06
-9.98634e-07
-1.00258e-06
-1.00259e-06
-1.00259e-06
-1.00259e-06
-1.00259e-06
-1.00258e-06
-1.02714e-06
-1.01655e-06
-1.00802e-06
-9.97195e-07
-1.00258e-06
-1.00259e-06
-1.00259e-06
-1.00259e-06
-1.00259e-06
-1.00258e-06
-1.02741e-06
-1.01111e-06
-1.00024e-06
-1.00258e-06
-1.00259e-06
-1.00259e-06
-1.00259e-06
-1.00259e-06
-1.00258e-06
-1.02575e-06
-1.02284e-06
-1.00969e-06
-1.00866e-06
-1.00258e-06
-1.00258e-06
-1.00258e-06
-1.00258e-06
-1.03537e-06
-1.01781e-06
-1.01442e-06
-1.00871e-06
-1.00977e-06
-1.02196e-06
-1.02714e-06
-1.02741e-06
-1.02577e-06
-1.01783e-06
-1.02336e-06
-1.01718e-06
-1.01655e-06
-1.01111e-06
-1.02284e-06
-1.01443e-06
-9.94953e-07
-9.95566e-07
-9.91946e-07
-9.8777e-07
-9.86181e-07
-9.84747e-07
-9.87791e-07
-9.9724e-07
-9.96259e-07
-9.91945e-07
-9.78385e-07
-9.90136e-07
-9.90136e-07
-9.90136e-07
-9.90136e-07
-9.96204e-07
-9.97318e-07
-9.87773e-07
-9.90136e-07
-9.90135e-07
-9.90135e-07
-9.90135e-07
-9.90134e-07
-9.90136e-07
-1.00951e-06
-1.00473e-06
-9.94957e-07
-9.86185e-07
-9.90135e-07
-9.90136e-07
-9.90136e-07
-9.90136e-07
-9.90135e-07
-9.90135e-07
-1.01469e-06
-1.0041e-06
-9.95568e-07
-9.84747e-07
-9.90135e-07
-9.90136e-07
-9.90136e-07
-9.90136e-07
-9.90135e-07
-9.90135e-07
-1.01496e-06
-9.98664e-07
-9.87793e-07
-9.90135e-07
-9.90135e-07
-9.90135e-07
-9.90135e-07
-9.90134e-07
-9.90136e-07
-1.0133e-06
-1.01039e-06
-9.97242e-07
-9.96211e-07
-9.90136e-07
-9.90135e-07
-9.90135e-07
-9.90136e-07
-1.02292e-06
-1.00536e-06
-1.00197e-06
-9.96263e-07
-9.97318e-07
-1.00951e-06
-1.01469e-06
-1.01496e-06
-1.01331e-06
-1.00538e-06
-1.01091e-06
-1.00473e-06
-1.0041e-06
-9.9866e-07
-1.0104e-06
-1.00198e-06
-9.82506e-07
-9.83119e-07
-9.79507e-07
-9.75321e-07
-9.73734e-07
-9.72299e-07
-9.75346e-07
-9.84788e-07
-9.83812e-07
-9.79497e-07
-9.65934e-07
-9.77686e-07
-9.77686e-07
-9.77686e-07
-9.77686e-07
-9.83756e-07
-9.8487e-07
-9.75324e-07
-9.77686e-07
-9.77687e-07
-9.77687e-07
-9.77687e-07
-9.77686e-07
-9.77686e-07
-9.97063e-07
-9.9228e-07
-9.82508e-07
-9.73735e-07
-9.77686e-07
-9.77687e-07
-9.77686e-07
-9.77686e-07
-9.77686e-07
-9.77686e-07
-1.00224e-06
-9.91652e-07
-9.83119e-07
-9.72297e-07
-9.77685e-07
-9.77686e-07
-9.77686e-07
-9.77686e-07
-9.77686e-07
-9.77685e-07
-1.00251e-06
-9.86215e-07
-9.75344e-07
-9.77686e-07
-9.77686e-07
-9.77686e-07
-9.77686e-07
-9.77686e-07
-9.77686e-07
-1.00085e-06
-9.97943e-07
-9.84793e-07
-9.83763e-07
-9.77686e-07
-9.77686e-07
-9.77686e-07
-9.77686e-07
-1.01047e-06
-9.92916e-07
-9.89525e-07
-9.83815e-07
-9.8487e-07
-9.97067e-07
-1.00224e-06
-1.00251e-06
-1.00087e-06
-9.92936e-07
-9.98464e-07
-9.92284e-07
-9.9165e-07
-9.86211e-07
-9.97947e-07
-9.89532e-07
-9.70055e-07
-9.70669e-07
-9.67052e-07
-9.62871e-07
-9.61283e-07
-9.5985e-07
-9.62901e-07
-9.72345e-07
-9.71353e-07
-9.67048e-07
-9.53482e-07
-9.65236e-07
-9.65236e-07
-9.65236e-07
-9.65236e-07
-9.71307e-07
-9.72416e-07
-9.62874e-07
-9.65236e-07
-9.65237e-07
-9.65237e-07
-9.65237e-07
-9.65237e-07
-9.65236e-07
-9.84613e-07
-9.79829e-07
-9.70058e-07
-9.61285e-07
-9.65236e-07
-9.65237e-07
-9.65237e-07
-9.65236e-07
-9.65237e-07
-9.65236e-07
-9.89787e-07
-9.79202e-07
-9.70669e-07
-9.59847e-07
-9.65236e-07
-9.65237e-07
-9.65237e-07
-9.65237e-07
-9.65237e-07
-9.65236e-07
-9.9006e-07
-9.73765e-07
-9.62895e-07
-9.65236e-07
-9.65237e-07
-9.65236e-07
-9.65236e-07
-9.65237e-07
-9.65236e-07
-9.88399e-07
-9.85493e-07
-9.72344e-07
-9.71314e-07
-9.65236e-07
-9.65236e-07
-9.65236e-07
-9.65236e-07
-9.98021e-07
-9.80467e-07
-9.77075e-07
-9.71366e-07
-9.72421e-07
-9.84617e-07
-9.89794e-07
-9.90065e-07
-9.88418e-07
-9.80487e-07
-9.86014e-07
-9.79834e-07
-9.79201e-07
-9.73762e-07
-9.85497e-07
-9.77083e-07
-9.57607e-07
-9.5822e-07
-9.54606e-07
-9.50422e-07
-9.48835e-07
-9.47401e-07
-9.50451e-07
-9.59896e-07
-9.58906e-07
-9.54598e-07
-9.41033e-07
-9.52787e-07
-9.52787e-07
-9.52787e-07
-9.52787e-07
-9.58859e-07
-9.59968e-07
-9.50425e-07
-9.52787e-07
-9.52787e-07
-9.52787e-07
-9.52787e-07
-9.52787e-07
-9.52787e-07
-9.72164e-07
-9.6738e-07
-9.57609e-07
-9.48836e-07
-9.52787e-07
-9.52787e-07
-9.52787e-07
-9.52787e-07
-9.52788e-07
-9.52787e-07
-9.77337e-07
-9.66753e-07
-9.5822e-07
-9.47398e-07
-9.52787e-07
-9.52787e-07
-9.52787e-07
-9.52787e-07
-9.52787e-07
-9.52787e-07
-9.77611e-07
-9.61316e-07
-9.50446e-07
-9.52787e-07
-9.52787e-07
-9.52787e-07
-9.52787e-07
-9.52787e-07
-9.52787e-07
-9.7595e-07
-9.73044e-07
-9.59895e-07
-9.58865e-07
-9.52787e-07
-9.52787e-07
-9.52787e-07
-9.52787e-07
-9.85572e-07
-9.68017e-07
-9.64626e-07
-9.58916e-07
-9.59971e-07
-9.72167e-07
-9.77344e-07
-9.77615e-07
-9.75968e-07
-9.68038e-07
-9.73565e-07
-9.67385e-07
-9.66753e-07
-9.61313e-07
-9.73048e-07
-9.64633e-07
-9.45157e-07
-9.45771e-07
-9.42157e-07
-9.37973e-07
-9.36385e-07
-9.34951e-07
-9.38003e-07
-9.47446e-07
-9.46455e-07
-9.42149e-07
-9.28584e-07
-9.40338e-07
-9.40338e-07
-9.40338e-07
-9.40338e-07
-9.46409e-07
-9.47518e-07
-9.37977e-07
-9.40339e-07
-9.40338e-07
-9.40338e-07
-9.40338e-07
-9.40338e-07
-9.40338e-07
-9.59714e-07
-9.54931e-07
-9.45161e-07
-9.36388e-07
-9.40338e-07
-9.40338e-07
-9.40338e-07
-9.40338e-07
-9.40338e-07
-9.40338e-07
-9.64888e-07
-9.54303e-07
-9.45771e-07
-9.34949e-07
-9.40339e-07
-9.40338e-07
-9.40338e-07
-9.40338e-07
-9.40338e-07
-9.40338e-07
-9.65161e-07
-9.48867e-07
-9.37997e-07
-9.40338e-07
-9.40338e-07
-9.40338e-07
-9.40338e-07
-9.40338e-07
-9.40338e-07
-9.63501e-07
-9.60595e-07
-9.47446e-07
-9.46416e-07
-9.40338e-07
-9.40338e-07
-9.40338e-07
-9.40338e-07
-9.73122e-07
-9.55568e-07
-9.52177e-07
-9.46468e-07
-9.47522e-07
-9.59718e-07
-9.64895e-07
-9.65166e-07
-9.63519e-07
-9.55589e-07
-9.61116e-07
-9.54936e-07
-9.54303e-07
-9.48864e-07
-9.60599e-07
-9.52184e-07
-9.3271e-07
-9.33323e-07
-9.29708e-07
-9.25525e-07
-9.23937e-07
-9.22503e-07
-9.25554e-07
-9.34998e-07
-9.34008e-07
-9.297e-07
-9.16137e-07
-9.2789e-07
-9.2789e-07
-9.27889e-07
-9.27889e-07
-9.3396e-07
-9.3507e-07
-9.25527e-07
-9.27889e-07
-9.2789e-07
-9.2789e-07
-9.2789e-07
-9.27889e-07
-9.27889e-07
-9.47266e-07
-9.42483e-07
-9.32712e-07
-9.23939e-07
-9.2789e-07
-9.2789e-07
-9.2789e-07
-9.2789e-07
-9.2789e-07
-9.2789e-07
-9.52439e-07
-9.41855e-07
-9.33322e-07
-9.225e-07
-9.2789e-07
-9.2789e-07
-9.2789e-07
-9.2789e-07
-9.2789e-07
-9.2789e-07
-9.52713e-07
-9.36419e-07
-9.25548e-07
-9.2789e-07
-9.27889e-07
-9.2789e-07
-9.2789e-07
-9.2789e-07
-9.2789e-07
-9.51052e-07
-9.48147e-07
-9.34997e-07
-9.33967e-07
-9.2789e-07
-9.2789e-07
-9.27889e-07
-9.2789e-07
-9.60674e-07
-9.4312e-07
-9.39728e-07
-9.34019e-07
-9.35074e-07
-9.4727e-07
-9.52447e-07
-9.52719e-07
-9.51072e-07
-9.43141e-07
-9.48668e-07
-9.42488e-07
-9.41856e-07
-9.36415e-07
-9.48151e-07
-9.39736e-07
-9.2026e-07
-9.20873e-07
-9.17259e-07
-9.13075e-07
-9.11488e-07
-9.10054e-07
-9.13105e-07
-9.22546e-07
-9.21558e-07
-9.17251e-07
-9.03688e-07
-9.15441e-07
-9.1544e-07
-9.1544e-07
-9.15441e-07
-9.21511e-07
-9.22621e-07
-9.13078e-07
-9.15441e-07
-9.15441e-07
-9.15441e-07
-9.15441e-07
-9.15441e-07
-9.15441e-07
-9.34817e-07
-9.30034e-07
-9.20263e-07
-9.1149e-07
-9.15441e-07
-9.15441e-07
-9.15441e-07
-9.15441e-07
-9.15441e-07
-9.15441e-07
-9.39991e-07
-9.29406e-07
-9.20873e-07
-9.10052e-07
-9.15441e-07
-9.15441e-07
-9.15441e-07
-9.15441e-07
-9.15441e-07
-9.15441e-07
-9.40264e-07
-9.2397e-07
-9.13099e-07
-9.15441e-07
-9.15441e-07
-9.15441e-07
-9.15441e-07
-9.15441e-07
-9.15441e-07
-9.38604e-07
-9.35698e-07
-9.22548e-07
-9.21518e-07
-9.15441e-07
-9.15441e-07
-9.15441e-07
-9.15441e-07
-9.48226e-07
-9.30671e-07
-9.2728e-07
-9.2157e-07
-9.22625e-07
-9.34822e-07
-9.39998e-07
-9.4027e-07
-9.38623e-07
-9.30692e-07
-9.36219e-07
-9.30039e-07
-9.29407e-07
-9.23966e-07
-9.35703e-07
-9.27288e-07
-9.07812e-07
-9.08425e-07
-9.04811e-07
-9.00627e-07
-8.9904e-07
-8.97606e-07
-9.00658e-07
-9.101e-07
-9.09111e-07
-9.04803e-07
-8.9124e-07
-9.02993e-07
-9.02993e-07
-9.02993e-07
-9.02993e-07
-9.09064e-07
-9.10173e-07
-9.0063e-07
-9.02993e-07
-9.02993e-07
-9.02993e-07
-9.02993e-07
-9.02993e-07
-9.02993e-07
-9.22371e-07
-9.17585e-07
-9.07815e-07
-8.99042e-07
-9.02993e-07
-9.02993e-07
-9.02993e-07
-9.02993e-07
-9.02993e-07
-9.02993e-07
-9.27543e-07
-9.16958e-07
-9.08425e-07
-8.97604e-07
-9.02993e-07
-9.02993e-07
-9.02993e-07
-9.02993e-07
-9.02993e-07
-9.02993e-07
-9.27816e-07
-9.11522e-07
-9.00652e-07
-9.02993e-07
-9.02993e-07
-9.02993e-07
-9.02993e-07
-9.02993e-07
-9.02993e-07
-9.26156e-07
-9.2325e-07
-9.10101e-07
-9.09071e-07
-9.02993e-07
-9.02993e-07
-9.02993e-07
-9.02993e-07
-9.35778e-07
-9.18223e-07
-9.14832e-07
-9.09122e-07
-9.10177e-07
-9.22374e-07
-9.27549e-07
-9.2782e-07
-9.26175e-07
-9.18244e-07
-9.23771e-07
-9.17591e-07
-9.16959e-07
-9.11518e-07
-9.23254e-07
-9.14839e-07
-8.95365e-07
-8.95978e-07
-8.92364e-07
-8.8818e-07
-8.86593e-07
-8.85158e-07
-8.8821e-07
-8.97655e-07
-8.96663e-07
-8.92356e-07
-8.78793e-07
-8.90545e-07
-8.90545e-07
-8.90545e-07
-8.90546e-07
-8.96616e-07
-8.97725e-07
-8.88183e-07
-8.90545e-07
-8.90545e-07
-8.90545e-07
-8.90545e-07
-8.90545e-07
-8.90545e-07
-9.09924e-07
-9.05139e-07
-8.95367e-07
-8.86594e-07
-8.90545e-07
-8.90545e-07
-8.90545e-07
-8.90545e-07
-8.90545e-07
-8.90545e-07
-9.15095e-07
-9.04511e-07
-8.95978e-07
-8.85156e-07
-8.90545e-07
-8.90545e-07
-8.90545e-07
-8.90545e-07
-8.90545e-07
-8.90545e-07
-9.15369e-07
-8.99075e-07
-8.88204e-07
-8.90545e-07
-8.90545e-07
-8.90545e-07
-8.90545e-07
-8.90545e-07
-8.90546e-07
-9.13708e-07
-9.10803e-07
-8.97653e-07
-8.96623e-07
-8.90545e-07
-8.90545e-07
-8.90546e-07
-8.90546e-07
-9.23331e-07
-9.05776e-07
-9.02385e-07
-8.96675e-07
-8.9773e-07
-9.09926e-07
-9.15102e-07
-9.15374e-07
-9.13727e-07
-9.05797e-07
-9.11324e-07
-9.05144e-07
-9.04511e-07
-8.99074e-07
-9.10807e-07
-9.02393e-07
-8.82916e-07
-8.83529e-07
-8.79915e-07
-8.75731e-07
-8.74144e-07
-8.72709e-07
-8.75761e-07
-8.85208e-07
-8.84214e-07
-8.79907e-07
-8.66344e-07
-8.78096e-07
-8.78096e-07
-8.78096e-07
-8.78097e-07
-8.84168e-07
-8.85277e-07
-8.75734e-07
-8.78096e-07
-8.78096e-07
-8.78096e-07
-8.78096e-07
-8.78096e-07
-8.78097e-07
-8.97475e-07
-8.9269e-07
-8.82918e-07
-8.74145e-07
-8.78096e-07
-8.78096e-07
-8.78096e-07
-8.78096e-07
-8.78096e-07
-8.78097e-07
-9.02647e-07
-8.92062e-07
-8.83529e-07
-8.72707e-07
-8.78096e-07
-8.78096e-07
-8.78096e-07
-8.78096e-07
-8.78096e-07
-8.78097e-07
-9.0292e-07
-8.86626e-07
-8.75755e-07
-8.78096e-07
-8.78096e-07
-8.78096e-07
-8.78096e-07
-8.78096e-07
-8.78097e-07
-9.01259e-07
-8.98354e-07
-8.85204e-07
-8.84174e-07
-8.78096e-07
-8.78096e-07
-8.78097e-07
-8.78097e-07
-9.10881e-07
-8.93327e-07
-8.89936e-07
-8.84226e-07
-8.85281e-07
-8.97477e-07
-9.0265e-07
-9.02922e-07
-9.01278e-07
-8.93348e-07
-8.98875e-07
-8.92695e-07
-8.92063e-07
-8.86623e-07
-8.9836e-07
-8.89943e-07
-8.70466e-07
-8.71078e-07
-8.67465e-07
-8.63281e-07
-8.61694e-07
-8.60258e-07
-8.63305e-07
-8.72753e-07
-8.71773e-07
-8.67458e-07
-8.53894e-07
-8.65647e-07
-8.65647e-07
-8.65647e-07
-8.65647e-07
-8.71717e-07
-8.72832e-07
-8.63285e-07
-8.65647e-07
-8.65647e-07
-8.65647e-07
-8.65647e-07
-8.65647e-07
-8.65647e-07
-8.85027e-07
-8.80243e-07
-8.70469e-07
-8.61696e-07
-8.65647e-07
-8.65647e-07
-8.65647e-07
-8.65647e-07
-8.65647e-07
-8.65647e-07
-8.90198e-07
-8.79614e-07
-8.7108e-07
-8.60258e-07
-8.65647e-07
-8.65647e-07
-8.65647e-07
-8.65647e-07
-8.65647e-07
-8.65647e-07
-8.90471e-07
-8.74177e-07
-8.63306e-07
-8.65647e-07
-8.65647e-07
-8.65647e-07
-8.65647e-07
-8.65647e-07
-8.65647e-07
-8.8881e-07
-8.85904e-07
-8.72754e-07
-8.71724e-07
-8.65647e-07
-8.65647e-07
-8.65647e-07
-8.65647e-07
-8.98432e-07
-8.80878e-07
-8.77486e-07
-8.71776e-07
-8.72831e-07
-8.85027e-07
-8.90201e-07
-8.90475e-07
-8.88831e-07
-8.80899e-07
-8.86426e-07
-8.80245e-07
-8.79614e-07
-8.74175e-07
-8.85911e-07
-8.77494e-07
-8.58017e-07
-8.5863e-07
-8.55017e-07
-8.50833e-07
-8.49244e-07
-8.47809e-07
-8.50857e-07
-8.60305e-07
-8.59324e-07
-8.55008e-07
-8.41445e-07
-8.53197e-07
-8.53197e-07
-8.53197e-07
-8.53198e-07
-8.59267e-07
-8.60382e-07
-8.50835e-07
-8.53197e-07
-8.53198e-07
-8.53198e-07
-8.53198e-07
-8.53198e-07
-8.53198e-07
-8.72577e-07
-8.67792e-07
-8.5802e-07
-8.49246e-07
-8.53197e-07
-8.53197e-07
-8.53198e-07
-8.53198e-07
-8.53198e-07
-8.53198e-07
-8.77748e-07
-8.67164e-07
-8.5863e-07
-8.47808e-07
-8.53197e-07
-8.53197e-07
-8.53198e-07
-8.53198e-07
-8.53198e-07
-8.53198e-07
-8.78021e-07
-8.61727e-07
-8.50856e-07
-8.53197e-07
-8.53197e-07
-8.53198e-07
-8.53198e-07
-8.53198e-07
-8.53198e-07
-8.7636e-07
-8.73455e-07
-8.60305e-07
-8.59275e-07
-8.53198e-07
-8.53198e-07
-8.53198e-07
-8.53198e-07
-8.85982e-07
-8.68428e-07
-8.65037e-07
-8.59327e-07
-8.60382e-07
-8.72578e-07
-8.77753e-07
-8.78026e-07
-8.76381e-07
-8.68448e-07
-8.73976e-07
-8.67796e-07
-8.67165e-07
-8.61727e-07
-8.73461e-07
-8.65041e-07
-8.45567e-07
-8.4618e-07
-8.42568e-07
-8.38383e-07
-8.36795e-07
-8.3536e-07
-8.38407e-07
-8.47856e-07
-8.46874e-07
-8.42559e-07
-8.28996e-07
-8.40748e-07
-8.40748e-07
-8.40748e-07
-8.40748e-07
-8.46817e-07
-8.47932e-07
-8.38386e-07
-8.40748e-07
-8.40748e-07
-8.40748e-07
-8.40748e-07
-8.40748e-07
-8.40748e-07
-8.60128e-07
-8.55342e-07
-8.4557e-07
-8.36797e-07
-8.40748e-07
-8.40748e-07
-8.40748e-07
-8.40748e-07
-8.40748e-07
-8.40748e-07
-8.65298e-07
-8.54714e-07
-8.46181e-07
-8.35359e-07
-8.40748e-07
-8.40748e-07
-8.40748e-07
-8.40748e-07
-8.40748e-07
-8.40748e-07
-8.65572e-07
-8.49277e-07
-8.38407e-07
-8.40748e-07
-8.40748e-07
-8.40748e-07
-8.40748e-07
-8.40748e-07
-8.40748e-07
-8.63911e-07
-8.61005e-07
-8.47856e-07
-8.46826e-07
-8.40748e-07
-8.40748e-07
-8.40748e-07
-8.40748e-07
-8.73533e-07
-8.55979e-07
-8.52587e-07
-8.46877e-07
-8.47932e-07
-8.60129e-07
-8.65303e-07
-8.65576e-07
-8.63932e-07
-8.55999e-07
-8.61526e-07
-8.55346e-07
-8.54715e-07
-8.49277e-07
-8.61011e-07
-8.52591e-07
-8.33119e-07
-8.33731e-07
-8.3012e-07
-8.25934e-07
-8.24346e-07
-8.22911e-07
-8.25958e-07
-8.35408e-07
-8.34426e-07
-8.3011e-07
-8.16547e-07
-8.283e-07
-8.283e-07
-8.28299e-07
-8.28299e-07
-8.34368e-07
-8.35483e-07
-8.25937e-07
-8.28299e-07
-8.283e-07
-8.283e-07
-8.283e-07
-8.283e-07
-8.283e-07
-8.47679e-07
-8.42893e-07
-8.33121e-07
-8.24348e-07
-8.283e-07
-8.283e-07
-8.283e-07
-8.283e-07
-8.283e-07
-8.283e-07
-8.52849e-07
-8.42265e-07
-8.33732e-07
-8.2291e-07
-8.283e-07
-8.283e-07
-8.283e-07
-8.283e-07
-8.283e-07
-8.283e-07
-8.53123e-07
-8.36829e-07
-8.25958e-07
-8.283e-07
-8.283e-07
-8.283e-07
-8.283e-07
-8.283e-07
-8.283e-07
-8.51462e-07
-8.48556e-07
-8.35407e-07
-8.34377e-07
-8.283e-07
-8.283e-07
-8.283e-07
-8.283e-07
-8.61084e-07
-8.4353e-07
-8.40139e-07
-8.34429e-07
-8.35484e-07
-8.4768e-07
-8.52854e-07
-8.53127e-07
-8.51483e-07
-8.4355e-07
-8.49078e-07
-8.42898e-07
-8.42266e-07
-8.36828e-07
-8.48561e-07
-8.40142e-07
-8.2067e-07
-8.21283e-07
-8.17671e-07
-8.13486e-07
-8.11897e-07
-8.10463e-07
-8.1351e-07
-8.22958e-07
-8.21977e-07
-8.17662e-07
-8.04099e-07
-8.15851e-07
-8.15851e-07
-8.15851e-07
-8.15851e-07
-8.2192e-07
-8.23035e-07
-8.13489e-07
-8.15851e-07
-8.15851e-07
-8.15851e-07
-8.15851e-07
-8.15851e-07
-8.15851e-07
-8.3523e-07
-8.30445e-07
-8.20673e-07
-8.119e-07
-8.15851e-07
-8.15851e-07
-8.15851e-07
-8.15851e-07
-8.15851e-07
-8.15851e-07
-8.40401e-07
-8.29817e-07
-8.21284e-07
-8.10462e-07
-8.15851e-07
-8.15851e-07
-8.15851e-07
-8.15851e-07
-8.15851e-07
-8.15851e-07
-8.40674e-07
-8.2438e-07
-8.1351e-07
-8.15851e-07
-8.15851e-07
-8.15851e-07
-8.15851e-07
-8.15851e-07
-8.15851e-07
-8.39013e-07
-8.36108e-07
-8.22958e-07
-8.21929e-07
-8.15851e-07
-8.15851e-07
-8.15851e-07
-8.15851e-07
-8.48635e-07
-8.31081e-07
-8.2769e-07
-8.2198e-07
-8.23035e-07
-8.35232e-07
-8.40406e-07
-8.40678e-07
-8.39034e-07
-8.31101e-07
-8.36629e-07
-8.30449e-07
-8.29817e-07
-8.2438e-07
-8.36113e-07
-8.27694e-07
-8.08222e-07
-8.08835e-07
-8.05223e-07
-8.01037e-07
-7.99449e-07
-7.98015e-07
-8.01063e-07
-8.10511e-07
-8.09528e-07
-8.05214e-07
-7.91651e-07
-8.03403e-07
-8.03403e-07
-8.03403e-07
-8.03403e-07
-8.09471e-07
-8.10586e-07
-8.0104e-07
-8.03403e-07
-8.03402e-07
-8.03403e-07
-8.03403e-07
-8.03403e-07
-8.03403e-07
-8.22782e-07
-8.17997e-07
-8.08225e-07
-7.99452e-07
-8.03403e-07
-8.03403e-07
-8.03403e-07
-8.03403e-07
-8.03403e-07
-8.03403e-07
-8.27952e-07
-8.17368e-07
-8.08835e-07
-7.98013e-07
-8.03403e-07
-8.03402e-07
-8.03403e-07
-8.03402e-07
-8.03403e-07
-8.03403e-07
-8.28226e-07
-8.11932e-07
-8.01061e-07
-8.03403e-07
-8.03403e-07
-8.03403e-07
-8.03403e-07
-8.03403e-07
-8.03403e-07
-8.26565e-07
-8.23659e-07
-8.1051e-07
-8.0948e-07
-8.03403e-07
-8.03403e-07
-8.03403e-07
-8.03403e-07
-8.36187e-07
-8.18633e-07
-8.15242e-07
-8.09532e-07
-8.10587e-07
-8.22783e-07
-8.27957e-07
-8.2823e-07
-8.26586e-07
-8.18653e-07
-8.2418e-07
-8.18001e-07
-8.17369e-07
-8.11931e-07
-8.23664e-07
-8.15245e-07
-7.95773e-07
-7.96386e-07
-7.92775e-07
-7.88589e-07
-7.87e-07
-7.85567e-07
-7.88615e-07
-7.98062e-07
-7.9708e-07
-7.92765e-07
-7.79203e-07
-7.90954e-07
-7.90955e-07
-7.90954e-07
-7.90955e-07
-7.97023e-07
-7.98138e-07
-7.88592e-07
-7.90954e-07
-7.90954e-07
-7.90954e-07
-7.90954e-07
-7.90954e-07
-7.90954e-07
-8.10334e-07
-8.05549e-07
-7.95776e-07
-7.87003e-07
-7.90954e-07
-7.90954e-07
-7.90955e-07
-7.90955e-07
-7.90955e-07
-7.90955e-07
-8.15504e-07
-8.0492e-07
-7.96386e-07
-7.85565e-07
-7.90954e-07
-7.90954e-07
-7.90955e-07
-7.90954e-07
-7.90954e-07
-7.90954e-07
-8.15778e-07
-7.99483e-07
-7.88613e-07
-7.90954e-07
-7.90954e-07
-7.90954e-07
-7.90954e-07
-7.90954e-07
-7.90954e-07
-8.14117e-07
-8.11211e-07
-7.98062e-07
-7.97032e-07
-7.90954e-07
-7.90955e-07
-7.90956e-07
-7.90955e-07
-8.23739e-07
-8.06185e-07
-8.02793e-07
-7.97084e-07
-7.98139e-07
-8.10335e-07
-8.15509e-07
-8.15782e-07
-8.14138e-07
-8.06205e-07
-8.11732e-07
-8.05553e-07
-8.04921e-07
-7.99483e-07
-8.11216e-07
-8.02797e-07
-7.83325e-07
-7.83938e-07
-7.80326e-07
-7.76141e-07
-7.74552e-07
-7.73118e-07
-7.76167e-07
-7.85614e-07
-7.84632e-07
-7.80316e-07
-7.66754e-07
-7.78506e-07
-7.78506e-07
-7.78505e-07
-7.78506e-07
-7.84575e-07
-7.8569e-07
-7.76143e-07
-7.78506e-07
-7.78505e-07
-7.78506e-07
-7.78505e-07
-7.78505e-07
-7.78506e-07
-7.97885e-07
-7.931e-07
-7.83328e-07
-7.74555e-07
-7.78505e-07
-7.78505e-07
-7.78506e-07
-7.78505e-07
-7.78506e-07
-7.78506e-07
-8.03056e-07
-7.92472e-07
-7.83939e-07
-7.73118e-07
-7.78505e-07
-7.78505e-07
-7.78505e-07
-7.78505e-07
-7.78505e-07
-7.78505e-07
-8.03329e-07
-7.87035e-07
-7.76164e-07
-7.78505e-07
-7.78505e-07
-7.78505e-07
-7.78505e-07
-7.78505e-07
-7.78506e-07
-8.01668e-07
-7.98763e-07
-7.85613e-07
-7.84583e-07
-7.78505e-07
-7.78505e-07
-7.78505e-07
-7.78506e-07
-8.1129e-07
-7.93736e-07
-7.90345e-07
-7.84635e-07
-7.8569e-07
-7.97889e-07
-8.03062e-07
-8.03336e-07
-8.0169e-07
-7.93756e-07
-7.99284e-07
-7.93103e-07
-7.92472e-07
-7.87035e-07
-7.98768e-07
-7.90349e-07
-7.70875e-07
-7.71488e-07
-7.67876e-07
-7.63691e-07
-7.62102e-07
-7.60668e-07
-7.63717e-07
-7.73162e-07
-7.72182e-07
-7.67867e-07
-7.54303e-07
-7.66055e-07
-7.66056e-07
-7.66055e-07
-7.66056e-07
-7.7213e-07
-7.7324e-07
-7.63693e-07
-7.66056e-07
-7.66055e-07
-7.66056e-07
-7.66055e-07
-7.66056e-07
-7.66055e-07
-7.85435e-07
-7.8065e-07
-7.70878e-07
-7.62105e-07
-7.66055e-07
-7.66055e-07
-7.66056e-07
-7.66055e-07
-7.66056e-07
-7.66056e-07
-7.90605e-07
-7.80021e-07
-7.71488e-07
-7.60668e-07
-7.66056e-07
-7.66055e-07
-7.66056e-07
-7.66055e-07
-7.66055e-07
-7.66056e-07
-7.90879e-07
-7.74585e-07
-7.63714e-07
-7.66056e-07
-7.66055e-07
-7.66055e-07
-7.66055e-07
-7.66055e-07
-7.66056e-07
-7.89218e-07
-7.86312e-07
-7.73163e-07
-7.72133e-07
-7.66055e-07
-7.66055e-07
-7.66055e-07
-7.66056e-07
-7.9884e-07
-7.81286e-07
-7.77894e-07
-7.72185e-07
-7.7324e-07
-7.85438e-07
-7.90612e-07
-7.90886e-07
-7.8924e-07
-7.81306e-07
-7.86833e-07
-7.80653e-07
-7.80022e-07
-7.74585e-07
-7.86318e-07
-7.77898e-07
-7.58425e-07
-7.59038e-07
-7.55426e-07
-7.51241e-07
-7.49652e-07
-7.48218e-07
-7.51267e-07
-7.60713e-07
-7.59732e-07
-7.55417e-07
-7.41854e-07
-7.53606e-07
-7.53607e-07
-7.53606e-07
-7.53606e-07
-7.59681e-07
-7.6079e-07
-7.51243e-07
-7.53606e-07
-7.53605e-07
-7.53605e-07
-7.53606e-07
-7.53606e-07
-7.53606e-07
-7.72985e-07
-7.682e-07
-7.58428e-07
-7.49655e-07
-7.53606e-07
-7.53606e-07