/*--------------------------------*- C++ -*----------------------------------*\
| =========                 |                                                 |
| \\      /  F ield         | OpenFOAM: The Open Source CFD Toolbox           |
|  \\    /   O peration     | Version:  v2012                                 |
|   \\  /    A nd           | Website:  www.openfoam.com                      |
|    \\/     M anipulation  |                                                 |
\*---------------------------------------------------------------------------*/
FoamFile
{
    version     2.0;
    format      ascii;
    class       volScalarField;
    location    "0.33";
    object      p;
}
// * * * * * * * * * * * * * * * * * * * * * * * * * * * * * * * * * * * * * //

dimensions      [0 2 -2 0 0 0 0];


internalField   nonuniform List<scalar> 
189320
(
6.24713e-07
6.24768e-07
6.1781e-07
6.1739e-07
6.15642e-07
6.15007e-07
6.16828e-07
6.18139e-07
6.15051e-07
6.17794e-07
6.14421e-07
6.15187e-07
6.14374e-07
6.14193e-07
6.1477e-07
6.1486e-07
6.16351e-07
6.17377e-07
6.15169e-07
6.13918e-07
6.1339e-07
6.13284e-07
6.13648e-07
6.14449e-07
6.14435e-07
6.187e-07
6.2462e-07
6.15581e-07
6.14362e-07
6.13386e-07
6.12955e-07
6.12877e-07
6.1313e-07
6.1382e-07
6.151e-07
6.17928e-07
6.247e-07
6.1499e-07
6.14184e-07
6.13282e-07
6.12878e-07
6.12802e-07
6.13031e-07
6.13654e-07
6.15051e-07
6.16277e-07
6.16814e-07
6.14766e-07
6.1365e-07
6.13134e-07
6.13033e-07
6.13352e-07
6.14114e-07
6.14928e-07
6.27096e-07
6.18131e-07
6.1486e-07
6.14457e-07
6.13832e-07
6.13662e-07
6.14117e-07
6.14964e-07
6.14328e-07
6.18226e-07
6.15049e-07
6.16361e-07
6.1446e-07
6.15131e-07
6.15071e-07
6.14936e-07
6.14329e-07
6.13508e-07
6.18717e-07
6.17959e-07
6.16316e-07
6.27117e-07
6.1824e-07
6.05966e-07
6.05743e-07
6.0733e-07
6.05621e-07
6.05716e-07
6.05459e-07
6.05497e-07
6.05446e-07
6.06031e-07
6.07329e-07
6.06906e-07
6.00131e-07
5.99982e-07
5.99984e-07
6.00118e-07
6.02036e-07
6.02647e-07
6.05606e-07
6.00125e-07
5.99086e-07
5.99617e-07
5.99609e-07
5.99089e-07
6.00145e-07
5.99227e-07
6.02588e-07
6.05958e-07
6.05718e-07
5.99981e-07
5.99606e-07
5.99819e-07
5.99815e-07
5.99614e-07
5.99977e-07
5.98815e-07
6.02154e-07
6.05743e-07
6.05465e-07
5.99985e-07
5.99607e-07
5.99815e-07
5.99814e-07
5.99617e-07
5.99983e-07
5.98782e-07
6.02418e-07
6.05504e-07
6.00115e-07
5.99086e-07
5.99611e-07
5.99603e-07
5.9909e-07
6.00132e-07
5.98851e-07
5.99795e-07
6.05407e-07
6.0205e-07
6.00143e-07
5.99981e-07
5.99981e-07
6.00128e-07
5.94603e-07
6.00544e-07
6.03858e-07
6.06018e-07
6.02645e-07
5.99229e-07
5.98811e-07
5.9878e-07
5.98848e-07
6.00526e-07
6.00375e-07
6.02593e-07
6.02157e-07
6.02411e-07
5.99777e-07
6.03946e-07
5.99391e-07
5.98945e-07
6.00677e-07
5.99377e-07
5.99729e-07
5.99808e-07
5.99035e-07
5.98728e-07
5.99145e-07
6.00675e-07
6.01776e-07
5.94553e-07
5.94469e-07
5.94467e-07
5.94554e-07
5.96767e-07
5.96234e-07
5.99376e-07
5.94551e-07
5.93811e-07
5.93873e-07
5.93863e-07
5.93819e-07
5.94557e-07
5.91642e-07
5.95829e-07
5.99389e-07
5.99727e-07
5.94466e-07
5.93862e-07
5.93905e-07
5.939e-07
5.9387e-07
5.94469e-07
5.90331e-07
5.95902e-07
5.98943e-07
5.99806e-07
5.94467e-07
5.9386e-07
5.939e-07
5.939e-07
5.93871e-07
5.9447e-07
5.90421e-07
5.95509e-07
5.99029e-07
5.9455e-07
5.93813e-07
5.93869e-07
5.93861e-07
5.93818e-07
5.94557e-07
5.90578e-07
5.93196e-07
5.98726e-07
5.96767e-07
5.94556e-07
5.94468e-07
5.94467e-07
5.94554e-07
5.87254e-07
5.93361e-07
5.96722e-07
5.99145e-07
5.96233e-07
5.91641e-07
5.90333e-07
5.90417e-07
5.90577e-07
5.93365e-07
5.93243e-07
5.95824e-07
5.95897e-07
5.95503e-07
5.93183e-07
5.9657e-07
5.92933e-07
5.92477e-07
5.94224e-07
5.931e-07
5.93518e-07
5.9366e-07
5.92697e-07
5.92285e-07
5.92669e-07
5.94225e-07
5.95635e-07
5.88426e-07
5.88397e-07
5.88396e-07
5.88425e-07
5.90284e-07
5.89737e-07
5.93095e-07
5.88426e-07
5.88147e-07
5.88133e-07
5.8813e-07
5.88147e-07
5.88427e-07
5.85231e-07
5.89287e-07
5.92935e-07
5.93521e-07
5.884e-07
5.88131e-07
5.88125e-07
5.88123e-07
5.88131e-07
5.88397e-07
5.83482e-07
5.89367e-07
5.92478e-07
5.93662e-07
5.88399e-07
5.88129e-07
5.88123e-07
5.88122e-07
5.88132e-07
5.88398e-07
5.83506e-07
5.88989e-07
5.927e-07
5.88426e-07
5.88146e-07
5.88131e-07
5.88129e-07
5.88147e-07
5.88425e-07
5.83782e-07
5.86656e-07
5.92287e-07
5.90284e-07
5.88427e-07
5.884e-07
5.88399e-07
5.88426e-07
5.80442e-07
5.86733e-07
5.90044e-07
5.92661e-07
5.89734e-07
5.85235e-07
5.83485e-07
5.83504e-07
5.83774e-07
5.8673e-07
5.86729e-07
5.89292e-07
5.89362e-07
5.88991e-07
5.86654e-07
5.90045e-07
5.86683e-07
5.86225e-07
5.87969e-07
5.86891e-07
5.87361e-07
5.87512e-07
5.86462e-07
5.86038e-07
5.86396e-07
5.87962e-07
5.89479e-07
5.82251e-07
5.82244e-07
5.82244e-07
5.82251e-07
5.84022e-07
5.83465e-07
5.86888e-07
5.82251e-07
5.82148e-07
5.82148e-07
5.82146e-07
5.82148e-07
5.82251e-07
5.78942e-07
5.8303e-07
5.86685e-07
5.87363e-07
5.82243e-07
5.82147e-07
5.82144e-07
5.82142e-07
5.82147e-07
5.82244e-07
5.7713e-07
5.83097e-07
5.86226e-07
5.8751e-07
5.82244e-07
5.82147e-07
5.82143e-07
5.82142e-07
5.82148e-07
5.82244e-07
5.77176e-07
5.8273e-07
5.86458e-07
5.82251e-07
5.82148e-07
5.82147e-07
5.82145e-07
5.82148e-07
5.82251e-07
5.77518e-07
5.8038e-07
5.86039e-07
5.84024e-07
5.82251e-07
5.82244e-07
5.82244e-07
5.82251e-07
5.74117e-07
5.80479e-07
5.83774e-07
5.86396e-07
5.83464e-07
5.78944e-07
5.77132e-07
5.77172e-07
5.77514e-07
5.80476e-07
5.80458e-07
5.83029e-07
5.83094e-07
5.82729e-07
5.80381e-07
5.83773e-07
5.80498e-07
5.80039e-07
5.81775e-07
5.80717e-07
5.81203e-07
5.81354e-07
5.80273e-07
5.79849e-07
5.80201e-07
5.81773e-07
5.83323e-07
5.76083e-07
5.76081e-07
5.76081e-07
5.76082e-07
5.77829e-07
5.77269e-07
5.80715e-07
5.76081e-07
5.76046e-07
5.76044e-07
5.76044e-07
5.76045e-07
5.76081e-07
5.7275e-07
5.76848e-07
5.80497e-07
5.81204e-07
5.7608e-07
5.76045e-07
5.76044e-07
5.76044e-07
5.76044e-07
5.7608e-07
5.70918e-07
5.76901e-07
5.80038e-07
5.81354e-07
5.76082e-07
5.76045e-07
5.76044e-07
5.76044e-07
5.76045e-07
5.7608e-07
5.70965e-07
5.7654e-07
5.80274e-07
5.76082e-07
5.76046e-07
5.76044e-07
5.76044e-07
5.76046e-07
5.76082e-07
5.7133e-07
5.74184e-07
5.79847e-07
5.77828e-07
5.76082e-07
5.76081e-07
5.7608e-07
5.76082e-07
5.67902e-07
5.74286e-07
5.77579e-07
5.802e-07
5.7727e-07
5.7275e-07
5.70915e-07
5.7096e-07
5.71324e-07
5.74281e-07
5.74254e-07
5.7684e-07
5.76899e-07
5.76538e-07
5.74184e-07
5.7759e-07
5.74329e-07
5.7387e-07
5.75604e-07
5.74557e-07
5.7505e-07
5.75198e-07
5.74099e-07
5.73679e-07
5.7403e-07
5.75603e-07
5.77164e-07
5.69915e-07
5.6992e-07
5.69919e-07
5.69916e-07
5.71657e-07
5.71096e-07
5.74555e-07
5.69918e-07
5.69905e-07
5.69906e-07
5.69906e-07
5.69905e-07
5.69919e-07
5.66576e-07
5.70673e-07
5.74328e-07
5.75051e-07
5.6992e-07
5.69904e-07
5.69905e-07
5.69906e-07
5.69904e-07
5.69918e-07
5.64738e-07
5.7073e-07
5.7387e-07
5.75196e-07
5.69918e-07
5.69904e-07
5.69905e-07
5.69906e-07
5.69904e-07
5.69918e-07
5.64794e-07
5.70371e-07
5.741e-07
5.69918e-07
5.69906e-07
5.69905e-07
5.69906e-07
5.69906e-07
5.69917e-07
5.65164e-07
5.68013e-07
5.73678e-07
5.71657e-07
5.69917e-07
5.69918e-07
5.69918e-07
5.69917e-07
5.61728e-07
5.6812e-07
5.71408e-07
5.74028e-07
5.71095e-07
5.66577e-07
5.64738e-07
5.64794e-07
5.65161e-07
5.68114e-07
5.6808e-07
5.70665e-07
5.70731e-07
5.70371e-07
5.6801e-07
5.7142e-07
5.68168e-07
5.67709e-07
5.69441e-07
5.68396e-07
5.68891e-07
5.69036e-07
5.67935e-07
5.67515e-07
5.67866e-07
5.6944e-07
5.71004e-07
5.63756e-07
5.63755e-07
5.63755e-07
5.63757e-07
5.65494e-07
5.64934e-07
5.68394e-07
5.63755e-07
5.63752e-07
5.63752e-07
5.63752e-07
5.63754e-07
5.63756e-07
5.60416e-07
5.64512e-07
5.68166e-07
5.68892e-07
5.63755e-07
5.63753e-07
5.63752e-07
5.63751e-07
5.63753e-07
5.63756e-07
5.58576e-07
5.6457e-07
5.67708e-07
5.69037e-07
5.63756e-07
5.63752e-07
5.63752e-07
5.63752e-07
5.63752e-07
5.63756e-07
5.58633e-07
5.64211e-07
5.67936e-07
5.63756e-07
5.63753e-07
5.63753e-07
5.63752e-07
5.63753e-07
5.63756e-07
5.59006e-07
5.61849e-07
5.67515e-07
5.65493e-07
5.63756e-07
5.63755e-07
5.63755e-07
5.63757e-07
5.55564e-07
5.61956e-07
5.65244e-07
5.67864e-07
5.64931e-07
5.60414e-07
5.58572e-07
5.58628e-07
5.58999e-07
5.61951e-07
5.61917e-07
5.64503e-07
5.64566e-07
5.64209e-07
5.61847e-07
5.65257e-07
5.62006e-07
5.61547e-07
5.6328e-07
5.62234e-07
5.62731e-07
5.62877e-07
5.61774e-07
5.61354e-07
5.61704e-07
5.63279e-07
5.64846e-07
5.57595e-07
5.57595e-07
5.57595e-07
5.57596e-07
5.59331e-07
5.58771e-07
5.62234e-07
5.57597e-07
5.57593e-07
5.57593e-07
5.57593e-07
5.57593e-07
5.57594e-07
5.54254e-07
5.58349e-07
5.62005e-07
5.62733e-07
5.57595e-07
5.57592e-07
5.57593e-07
5.57593e-07
5.57594e-07
5.57595e-07
5.52412e-07
5.58408e-07
5.61547e-07
5.62878e-07
5.57596e-07
5.57595e-07
5.57595e-07
5.57594e-07
5.57594e-07
5.57595e-07
5.52471e-07
5.58048e-07
5.61775e-07
5.57594e-07
5.57591e-07
5.57591e-07
5.57592e-07
5.57593e-07
5.57596e-07
5.52845e-07
5.55688e-07
5.61354e-07
5.5933e-07
5.57597e-07
5.57597e-07
5.57596e-07
5.57597e-07
5.49404e-07
5.55795e-07
5.59083e-07
5.61703e-07
5.58769e-07
5.54253e-07
5.5241e-07
5.52467e-07
5.52838e-07
5.5579e-07
5.55755e-07
5.58343e-07
5.58406e-07
5.58048e-07
5.55687e-07
5.59097e-07
5.55845e-07
5.55386e-07
5.57119e-07
5.56075e-07
5.56572e-07
5.56717e-07
5.55612e-07
5.55193e-07
5.55543e-07
5.57118e-07
5.58685e-07
5.51435e-07
5.51435e-07
5.51434e-07
5.51434e-07
5.53169e-07
5.5261e-07
5.56073e-07
5.51434e-07
5.51433e-07
5.51432e-07
5.51434e-07
5.51433e-07
5.51434e-07
5.48092e-07
5.52188e-07
5.55844e-07
5.56572e-07
5.51435e-07
5.51435e-07
5.51434e-07
5.51435e-07
5.51433e-07
5.51435e-07
5.46251e-07
5.52247e-07
5.55386e-07
5.56718e-07
5.51434e-07
5.51433e-07
5.51433e-07
5.51434e-07
5.51432e-07
5.51434e-07
5.4631e-07
5.51888e-07
5.55613e-07
5.51435e-07
5.51433e-07
5.51434e-07
5.51434e-07
5.51433e-07
5.51435e-07
5.46684e-07
5.49526e-07
5.55192e-07
5.53167e-07
5.51434e-07
5.51434e-07
5.51434e-07
5.51434e-07
5.43244e-07
5.49633e-07
5.52921e-07
5.55541e-07
5.52607e-07
5.48091e-07
5.46246e-07
5.46306e-07
5.46676e-07
5.49628e-07
5.49593e-07
5.52182e-07
5.52245e-07
5.51887e-07
5.49524e-07
5.52934e-07
5.49684e-07
5.49225e-07
5.5096e-07
5.49916e-07
5.50412e-07
5.50556e-07
5.4945e-07
5.49033e-07
5.49382e-07
5.50957e-07
5.52523e-07
5.45273e-07
5.45273e-07
5.45272e-07
5.45272e-07
5.47008e-07
5.46448e-07
5.49912e-07
5.45272e-07
5.45273e-07
5.45273e-07
5.45273e-07
5.45273e-07
5.45272e-07
5.41932e-07
5.46028e-07
5.49683e-07
5.50411e-07
5.45273e-07
5.45273e-07
5.45273e-07
5.45273e-07
5.45273e-07
5.45273e-07
5.40091e-07
5.46086e-07
5.49225e-07
5.50556e-07
5.45273e-07
5.45273e-07
5.45273e-07
5.45273e-07
5.45273e-07
5.45273e-07
5.4015e-07
5.45728e-07
5.49451e-07
5.45273e-07
5.45273e-07
5.45273e-07
5.45273e-07
5.45273e-07
5.45273e-07
5.40524e-07
5.43366e-07
5.49031e-07
5.47006e-07
5.45273e-07
5.45273e-07
5.45273e-07
5.45273e-07
5.37083e-07
5.43473e-07
5.4676e-07
5.4938e-07
5.46446e-07
5.4193e-07
5.40085e-07
5.40144e-07
5.40516e-07
5.43468e-07
5.43432e-07
5.46021e-07
5.46083e-07
5.45726e-07
5.43363e-07
5.46773e-07
5.43523e-07
5.43064e-07
5.44796e-07
5.43755e-07
5.44251e-07
5.44395e-07
5.4329e-07
5.4287e-07
5.43219e-07
5.44796e-07
5.46362e-07
5.39112e-07
5.39112e-07
5.39112e-07
5.39112e-07
5.40847e-07
5.40286e-07
5.43751e-07
5.39112e-07
5.39112e-07
5.39112e-07
5.39112e-07
5.39112e-07
5.39112e-07
5.35771e-07
5.39866e-07
5.43522e-07
5.44251e-07
5.39112e-07
5.39112e-07
5.39112e-07
5.39112e-07
5.39112e-07
5.39112e-07
5.33931e-07
5.39925e-07
5.43064e-07
5.44396e-07
5.39112e-07
5.39112e-07
5.39112e-07
5.39112e-07
5.39112e-07
5.39112e-07
5.3399e-07
5.39567e-07
5.4329e-07
5.39112e-07
5.39112e-07
5.39112e-07
5.39112e-07
5.39112e-07
5.39112e-07
5.34363e-07
5.37205e-07
5.4287e-07
5.40845e-07
5.39112e-07
5.39112e-07
5.39112e-07
5.39112e-07
5.30922e-07
5.37311e-07
5.40598e-07
5.43219e-07
5.40285e-07
5.35769e-07
5.33925e-07
5.33984e-07
5.34355e-07
5.37307e-07
5.37271e-07
5.3986e-07
5.39923e-07
5.39565e-07
5.37203e-07
5.40612e-07
5.37363e-07
5.36904e-07
5.38639e-07
5.37594e-07
5.3809e-07
5.38235e-07
5.37131e-07
5.36708e-07
5.37058e-07
5.38635e-07
5.40203e-07
5.32952e-07
5.32952e-07
5.32952e-07
5.32952e-07
5.34686e-07
5.34126e-07
5.37591e-07
5.32952e-07
5.32951e-07
5.32952e-07
5.32951e-07
5.32951e-07
5.32952e-07
5.2961e-07
5.33706e-07
5.37362e-07
5.38091e-07
5.32952e-07
5.32952e-07
5.32952e-07
5.32952e-07
5.32952e-07
5.32952e-07
5.2777e-07
5.33765e-07
5.36904e-07
5.38236e-07
5.32952e-07
5.32952e-07
5.32951e-07
5.32951e-07
5.32952e-07
5.32952e-07
5.27829e-07
5.33406e-07
5.3713e-07
5.32952e-07
5.32952e-07
5.32952e-07
5.32952e-07
5.32952e-07
5.32952e-07
5.28202e-07
5.31044e-07
5.3671e-07
5.34684e-07
5.32952e-07
5.32952e-07
5.32952e-07
5.32952e-07
5.24761e-07
5.31151e-07
5.34437e-07
5.37059e-07
5.34125e-07
5.29609e-07
5.27764e-07
5.27822e-07
5.28194e-07
5.31146e-07
5.31111e-07
5.33699e-07
5.33762e-07
5.33404e-07
5.31042e-07
5.34452e-07
5.31202e-07
5.30743e-07
5.32476e-07
5.31434e-07
5.3193e-07
5.32075e-07
5.30971e-07
5.30548e-07
5.30898e-07
5.32475e-07
5.34042e-07
5.26791e-07
5.26791e-07
5.26791e-07
5.26792e-07
5.28526e-07
5.27966e-07
5.31431e-07
5.26791e-07
5.26791e-07
5.26791e-07
5.26791e-07
5.26791e-07
5.26791e-07
5.2345e-07
5.27546e-07
5.31202e-07
5.3193e-07
5.26791e-07
5.26791e-07
5.26791e-07
5.26791e-07
5.26791e-07
5.26791e-07
5.2161e-07
5.27605e-07
5.30744e-07
5.32076e-07
5.26791e-07
5.26791e-07
5.26791e-07
5.26791e-07
5.26791e-07
5.26791e-07
5.21669e-07
5.27246e-07
5.30969e-07
5.26791e-07
5.26791e-07
5.26791e-07
5.26791e-07
5.26791e-07
5.26791e-07
5.22042e-07
5.24884e-07
5.3055e-07
5.28524e-07
5.26791e-07
5.26791e-07
5.26791e-07
5.26791e-07
5.18601e-07
5.24991e-07
5.28277e-07
5.30898e-07
5.27964e-07
5.23448e-07
5.21603e-07
5.21662e-07
5.22034e-07
5.24986e-07
5.2495e-07
5.27539e-07
5.27602e-07
5.27244e-07
5.24882e-07
5.28292e-07
5.25042e-07
5.24583e-07
5.26316e-07
5.25274e-07
5.2577e-07
5.25914e-07
5.2481e-07
5.24388e-07
5.2474e-07
5.26315e-07
5.27882e-07
5.20631e-07
5.20631e-07
5.20631e-07
5.20631e-07
5.22366e-07
5.21806e-07
5.2527e-07
5.20631e-07
5.20631e-07
5.20631e-07
5.20631e-07
5.20631e-07
5.20631e-07
5.1729e-07
5.21385e-07
5.25041e-07
5.2577e-07
5.20631e-07
5.20631e-07
5.20631e-07
5.20631e-07
5.20631e-07
5.20631e-07
5.15449e-07
5.21444e-07
5.24583e-07
5.25915e-07
5.20631e-07
5.20631e-07
5.20631e-07
5.20631e-07
5.20631e-07
5.20631e-07
5.15509e-07
5.21086e-07
5.24809e-07
5.20631e-07
5.20631e-07
5.20631e-07
5.20631e-07
5.20631e-07
5.20631e-07
5.15882e-07
5.18723e-07
5.24389e-07
5.22363e-07
5.20631e-07
5.20631e-07
5.20631e-07
5.20631e-07
5.12441e-07
5.1883e-07
5.22117e-07
5.24738e-07
5.21804e-07
5.17288e-07
5.15443e-07
5.15501e-07
5.15874e-07
5.18825e-07
5.1879e-07
5.21378e-07
5.21441e-07
5.21083e-07
5.18721e-07
5.22131e-07
5.18881e-07
5.18422e-07
5.20155e-07
5.19113e-07
5.19609e-07
5.19753e-07
5.18649e-07
5.18227e-07
5.18577e-07
5.20153e-07
5.2172e-07
5.1447e-07
5.1447e-07
5.1447e-07
5.1447e-07
5.16204e-07
5.15644e-07
5.19109e-07
5.1447e-07
5.1447e-07
5.1447e-07
5.1447e-07
5.1447e-07
5.1447e-07
5.11129e-07
5.15224e-07
5.1888e-07
5.19609e-07
5.1447e-07
5.1447e-07
5.1447e-07
5.1447e-07
5.1447e-07
5.1447e-07
5.09288e-07
5.15283e-07
5.18422e-07
5.19754e-07
5.1447e-07
5.1447e-07
5.1447e-07
5.1447e-07
5.1447e-07
5.1447e-07
5.09348e-07
5.14925e-07
5.18648e-07
5.1447e-07
5.1447e-07
5.1447e-07
5.1447e-07
5.1447e-07
5.1447e-07
5.09721e-07
5.12562e-07
5.18228e-07
5.16202e-07
5.1447e-07
5.1447e-07
5.1447e-07
5.1447e-07
5.0628e-07
5.12669e-07
5.15956e-07
5.18577e-07
5.15643e-07
5.11127e-07
5.09281e-07
5.0934e-07
5.09712e-07
5.12664e-07
5.12629e-07
5.15217e-07
5.1528e-07
5.14922e-07
5.1256e-07
5.1597e-07
5.1272e-07
5.12261e-07
5.13994e-07
5.12952e-07
5.13448e-07
5.13592e-07
5.12488e-07
5.12068e-07
5.12416e-07
5.13993e-07
5.15559e-07
5.08309e-07
5.0831e-07
5.0831e-07
5.08309e-07
5.10044e-07
5.09484e-07
5.12949e-07
5.08309e-07
5.08309e-07
5.08309e-07
5.08309e-07
5.08309e-07
5.08309e-07
5.04968e-07
5.09064e-07
5.12719e-07
5.13448e-07
5.08309e-07
5.08309e-07
5.08309e-07
5.08309e-07
5.08309e-07
5.08309e-07
5.03128e-07
5.09122e-07
5.12261e-07
5.13593e-07
5.08309e-07
5.08309e-07
5.08309e-07
5.08309e-07
5.08309e-07
5.08309e-07
5.03187e-07
5.08764e-07
5.12487e-07
5.08309e-07
5.08309e-07
5.08309e-07
5.08309e-07
5.08309e-07
5.08309e-07
5.0356e-07
5.06402e-07
5.12067e-07
5.10042e-07
5.08309e-07
5.08309e-07
5.08309e-07
5.08309e-07
5.00119e-07
5.06508e-07
5.09795e-07
5.12416e-07
5.09482e-07
5.04966e-07
5.03121e-07
5.0318e-07
5.03552e-07
5.06504e-07
5.06468e-07
5.09057e-07
5.0912e-07
5.08762e-07
5.06399e-07
5.09809e-07
5.06559e-07
5.06101e-07
5.07833e-07
5.06791e-07
5.07287e-07
5.07432e-07
5.06328e-07
5.05907e-07
5.06256e-07
5.07832e-07
5.09399e-07
5.02149e-07
5.02149e-07
5.02149e-07
5.02149e-07
5.03883e-07
5.03323e-07
5.06788e-07
5.02149e-07
5.02149e-07
5.02149e-07
5.02149e-07
5.02149e-07
5.02149e-07
4.98807e-07
5.02903e-07
5.06559e-07
5.07288e-07
5.02149e-07
5.02149e-07
5.02149e-07
5.02149e-07
5.02149e-07
5.02149e-07
4.96967e-07
5.02962e-07
5.06101e-07
5.07433e-07
5.02149e-07
5.02149e-07
5.02149e-07
5.02149e-07
5.02149e-07
5.02149e-07
4.97026e-07
5.02603e-07
5.06327e-07
5.02149e-07
5.02149e-07
5.02149e-07
5.02149e-07
5.02149e-07
5.02149e-07
4.97399e-07
5.00241e-07
5.05907e-07
5.03881e-07
5.02149e-07
5.02149e-07
5.02149e-07
5.02149e-07
4.93959e-07
5.00348e-07
5.03635e-07
5.06256e-07
5.03322e-07
4.98806e-07
4.96961e-07
4.97021e-07
4.97392e-07
5.00343e-07
5.00308e-07
5.02896e-07
5.02959e-07
5.02602e-07
5.00239e-07
5.03649e-07
5.00399e-07
4.9994e-07
5.01673e-07
5.00631e-07
5.01127e-07
5.01272e-07
5.00167e-07
4.99748e-07
5.00094e-07
5.01672e-07
5.03239e-07
4.95988e-07
4.95988e-07
4.95988e-07
4.95988e-07
4.97722e-07
4.97163e-07
5.00628e-07
4.95988e-07
4.95988e-07
4.95988e-07
4.95988e-07
4.95988e-07
4.95988e-07
4.92646e-07
4.96743e-07
5.00399e-07
5.01127e-07
4.95988e-07
4.95988e-07
4.95988e-07
4.95988e-07
4.95988e-07
4.95988e-07
4.90807e-07
4.96801e-07
4.9994e-07
5.01272e-07
4.95988e-07
4.95988e-07
4.95988e-07
4.95988e-07
4.95988e-07
4.95988e-07
4.90866e-07
4.96443e-07
5.00166e-07
4.95988e-07
4.95988e-07
4.95988e-07
4.95988e-07
4.95988e-07
4.95988e-07
4.91239e-07
4.94081e-07
4.99746e-07
4.97721e-07
4.95988e-07
4.95988e-07
4.95988e-07
4.95988e-07
4.87798e-07
4.94187e-07
4.97474e-07
5.00095e-07
4.97161e-07
4.92645e-07
4.908e-07
4.90859e-07
4.91231e-07
4.94183e-07
4.94147e-07
4.96735e-07
4.96798e-07
4.96439e-07
4.94077e-07
4.97488e-07
4.94238e-07
4.9378e-07
4.95512e-07
4.9447e-07
4.94966e-07
4.95111e-07
4.94006e-07
4.93587e-07
4.93934e-07
4.95511e-07
4.97078e-07
4.89827e-07
4.89827e-07
4.89827e-07
4.89827e-07
4.91562e-07
4.91002e-07
4.94467e-07
4.89827e-07
4.89827e-07
4.89827e-07
4.89827e-07
4.89827e-07
4.89827e-07
4.86485e-07
4.90581e-07
4.94238e-07
4.94966e-07
4.89827e-07
4.89827e-07
4.89827e-07
4.89827e-07
4.89827e-07
4.89827e-07
4.84646e-07
4.90641e-07
4.9378e-07
4.95111e-07
4.89827e-07
4.89827e-07
4.89827e-07
4.89827e-07
4.89827e-07
4.89827e-07
4.84705e-07
4.90282e-07
4.94005e-07
4.89827e-07
4.89827e-07
4.89827e-07
4.89827e-07
4.89827e-07
4.89827e-07
4.85078e-07
4.8792e-07
4.93586e-07
4.9156e-07
4.89827e-07
4.89827e-07
4.89827e-07
4.89827e-07
4.81637e-07
4.88027e-07
4.91313e-07
4.93935e-07
4.91e-07
4.86485e-07
4.84641e-07
4.84701e-07
4.85071e-07
4.88022e-07
4.87986e-07
4.90575e-07
4.90638e-07
4.9028e-07
4.87916e-07
4.91328e-07
4.88077e-07
4.87619e-07
4.89351e-07
4.88309e-07
4.88805e-07
4.8895e-07
4.87845e-07
4.87426e-07
4.87773e-07
4.8935e-07
4.90917e-07
4.83666e-07
4.83666e-07
4.83666e-07
4.83666e-07
4.85401e-07
4.84841e-07
4.88306e-07
4.83666e-07
4.83666e-07
4.83666e-07
4.83666e-07
4.83666e-07
4.83666e-07
4.80324e-07
4.8442e-07
4.88077e-07
4.88805e-07
4.83666e-07
4.83666e-07
4.83666e-07
4.83666e-07
4.83666e-07
4.83666e-07
4.78485e-07
4.84479e-07
4.87619e-07
4.8895e-07
4.83666e-07
4.83666e-07
4.83666e-07
4.83666e-07
4.83666e-07
4.83666e-07
4.78544e-07
4.84121e-07
4.87844e-07
4.83666e-07
4.83666e-07
4.83666e-07
4.83666e-07
4.83666e-07
4.83666e-07
4.78917e-07
4.81759e-07
4.87425e-07
4.85399e-07
4.83666e-07
4.83666e-07
4.83666e-07
4.83666e-07
4.75476e-07
4.81865e-07
4.85152e-07
4.87773e-07
4.84839e-07
4.80324e-07
4.7848e-07
4.78539e-07
4.78909e-07
4.81861e-07
4.81825e-07
4.84414e-07
4.84477e-07
4.84119e-07
4.81756e-07
4.85166e-07
4.81917e-07
4.81458e-07
4.8319e-07
4.82148e-07
4.82645e-07
4.82789e-07
4.81684e-07
4.81264e-07
4.81612e-07
4.83189e-07
4.84756e-07
4.77506e-07
4.77506e-07
4.77506e-07
4.77506e-07
4.79241e-07
4.7868e-07
4.82145e-07
4.77506e-07
4.77506e-07
4.77506e-07
4.77506e-07
4.77506e-07
4.77505e-07
4.74164e-07
4.7826e-07
4.81916e-07
4.82645e-07
4.77506e-07
4.77506e-07
4.77506e-07
4.77506e-07
4.77506e-07
4.77506e-07
4.72324e-07
4.78319e-07
4.81458e-07
4.8279e-07
4.77506e-07
4.77506e-07
4.77506e-07
4.77506e-07
4.77506e-07
4.77506e-07
4.72383e-07
4.7796e-07
4.81684e-07
4.77506e-07
4.77506e-07
4.77506e-07
4.77506e-07
4.77506e-07
4.77505e-07
4.72756e-07
4.75598e-07
4.81264e-07
4.79238e-07
4.77506e-07
4.77506e-07
4.77506e-07
4.77505e-07
4.69315e-07
4.75705e-07
4.78991e-07
4.81613e-07
4.78679e-07
4.74163e-07
4.72319e-07
4.72378e-07
4.72749e-07
4.757e-07
4.75665e-07
4.78253e-07
4.78316e-07
4.77958e-07
4.75595e-07
4.79005e-07
4.75756e-07
4.75297e-07
4.77029e-07
4.75987e-07
4.76484e-07
4.76628e-07
4.75524e-07
4.75104e-07
4.75451e-07
4.77028e-07
4.78595e-07
4.71345e-07
4.71345e-07
4.71345e-07
4.71345e-07
4.7308e-07
4.7252e-07
4.75984e-07
4.71345e-07
4.71345e-07
4.71345e-07
4.71345e-07
4.71345e-07
4.71345e-07
4.68003e-07
4.72099e-07
4.75755e-07
4.76484e-07
4.71345e-07
4.71345e-07
4.71345e-07
4.71345e-07
4.71345e-07
4.71345e-07
4.66163e-07
4.72158e-07
4.75297e-07
4.76629e-07
4.71345e-07
4.71345e-07
4.71345e-07
4.71345e-07
4.71345e-07
4.71345e-07
4.66223e-07
4.718e-07
4.75523e-07
4.71345e-07
4.71345e-07
4.71345e-07
4.71345e-07
4.71345e-07
4.71345e-07
4.66596e-07
4.69437e-07
4.75103e-07
4.73077e-07
4.71345e-07
4.71345e-07
4.71345e-07
4.71345e-07
4.63155e-07
4.69544e-07
4.72831e-07
4.75452e-07
4.72518e-07
4.68002e-07
4.66159e-07
4.66217e-07
4.66588e-07
4.69539e-07
4.69504e-07
4.72093e-07
4.72156e-07
4.71797e-07
4.69434e-07
4.72844e-07
4.69595e-07
4.69136e-07
4.70868e-07
4.69826e-07
4.70323e-07
4.70467e-07
4.69363e-07
4.68942e-07
4.6929e-07
4.70867e-07
4.72434e-07
4.65184e-07
4.65184e-07
4.65184e-07
4.65184e-07
4.6692e-07
4.66359e-07
4.69823e-07
4.65184e-07
4.65184e-07
4.65184e-07
4.65184e-07
4.65184e-07
4.65184e-07
4.61842e-07
4.65939e-07
4.69594e-07
4.70323e-07
4.65184e-07
4.65184e-07
4.65184e-07
4.65184e-07
4.65184e-07
4.65184e-07
4.60002e-07
4.65997e-07
4.69136e-07
4.70468e-07
4.65184e-07
4.65184e-07
4.65184e-07
4.65184e-07
4.65184e-07
4.65184e-07
4.60062e-07
4.65639e-07
4.69362e-07
4.65184e-07
4.65184e-07
4.65184e-07
4.65184e-07
4.65184e-07
4.65184e-07
4.60435e-07
4.63276e-07
4.68942e-07
4.66916e-07
4.65184e-07
4.65184e-07
4.65184e-07
4.65184e-07
4.56994e-07
4.63383e-07
4.6667e-07
4.69291e-07
4.66357e-07
4.61841e-07
4.59998e-07
4.60056e-07
4.60427e-07
4.63378e-07
4.63343e-07
4.65931e-07
4.65995e-07
4.65636e-07
4.63273e-07
4.66683e-07
4.63434e-07
4.62975e-07
4.64707e-07
4.63665e-07
4.64162e-07
4.64306e-07
4.63202e-07
4.62782e-07
4.63129e-07
4.64707e-07
4.66273e-07
4.59023e-07
4.59023e-07
4.59023e-07
4.59023e-07
4.60758e-07
4.60198e-07
4.63662e-07
4.59023e-07
4.59023e-07
4.59023e-07
4.59023e-07
4.59023e-07
4.59023e-07
4.55681e-07
4.59779e-07
4.63433e-07
4.64162e-07
4.59023e-07
4.59023e-07
4.59023e-07
4.59023e-07
4.59023e-07
4.59023e-07
4.53842e-07
4.59836e-07
4.62975e-07
4.64307e-07
4.59023e-07
4.59023e-07
4.59023e-07
4.59023e-07
4.59023e-07
4.59023e-07
4.53901e-07
4.59478e-07
4.63201e-07
4.59023e-07
4.59023e-07
4.59023e-07
4.59023e-07
4.59023e-07
4.59023e-07
4.54274e-07
4.57116e-07
4.62781e-07
4.60756e-07
4.59023e-07
4.59023e-07
4.59023e-07
4.59023e-07
4.50833e-07
4.57222e-07
4.60509e-07
4.6313e-07
4.60196e-07
4.5568e-07
4.53837e-07
4.53896e-07
4.54266e-07
4.57217e-07
4.57182e-07
4.59771e-07
4.59834e-07
4.59476e-07
4.57112e-07
4.60522e-07
4.57274e-07
4.56815e-07
4.58546e-07
4.57505e-07
4.58002e-07
4.58146e-07
4.57041e-07
4.56621e-07
4.56969e-07
4.58546e-07
4.60113e-07
4.52862e-07
4.52863e-07
4.52863e-07
4.52862e-07
4.54598e-07
4.54037e-07
4.57502e-07
4.52862e-07
4.52863e-07
4.52862e-07
4.52863e-07
4.52863e-07
4.52862e-07
4.49521e-07
4.53618e-07
4.57273e-07
4.58001e-07
4.52862e-07
4.52862e-07
4.52862e-07
4.52862e-07
4.52862e-07
4.52862e-07
4.47681e-07
4.53676e-07
4.56815e-07
4.58147e-07
4.52862e-07
4.52862e-07
4.52862e-07
4.52862e-07
4.52862e-07
4.52862e-07
4.4774e-07
4.53317e-07
4.5704e-07
4.52862e-07
4.52862e-07
4.52862e-07
4.52862e-07
4.52862e-07
4.52862e-07
4.48113e-07
4.50955e-07
4.56621e-07
4.54595e-07
4.52862e-07
4.52862e-07
4.52862e-07
4.52862e-07
4.44672e-07
4.51062e-07
4.54348e-07
4.5697e-07
4.54035e-07
4.4952e-07
4.47676e-07
4.47735e-07
4.48105e-07
4.51057e-07
4.51021e-07
4.5361e-07
4.53673e-07
4.53315e-07
4.50952e-07
4.54362e-07
4.51112e-07
4.50654e-07
4.52389e-07
4.51344e-07
4.51841e-07
4.51985e-07
4.5088e-07
4.50459e-07
4.50809e-07
4.52386e-07
4.53952e-07
4.46702e-07
4.46702e-07
4.46702e-07
4.46701e-07
4.48437e-07
4.47877e-07
4.51341e-07
4.46702e-07
4.46702e-07
4.46702e-07
4.46702e-07
4.46702e-07
4.46702e-07
4.4336e-07
4.47457e-07
4.51112e-07
4.51841e-07
4.46702e-07
4.46701e-07
4.46702e-07
4.46702e-07
4.46702e-07
4.46701e-07
4.4152e-07
4.47515e-07
4.50654e-07
4.51986e-07
4.46702e-07
4.46701e-07
4.46702e-07
4.46701e-07
4.46701e-07
4.46702e-07
4.41579e-07
4.47157e-07
4.5088e-07
4.46702e-07
4.46702e-07
4.46702e-07
4.46702e-07
4.46702e-07
4.46701e-07
4.41952e-07
4.44794e-07
4.5046e-07
4.48434e-07
4.46701e-07
4.46701e-07
4.467e-07
4.46701e-07
4.38511e-07
4.44901e-07
4.48188e-07
4.50809e-07
4.47875e-07
4.43359e-07
4.41515e-07
4.41574e-07
4.41944e-07
4.44896e-07
4.44861e-07
4.47449e-07
4.47512e-07
4.47154e-07
4.44791e-07
4.48201e-07
4.44951e-07
4.44493e-07
4.46228e-07
4.45182e-07
4.4568e-07
4.45824e-07
4.44719e-07
4.44297e-07
4.44648e-07
4.46224e-07
4.47791e-07
4.40541e-07
4.40541e-07
4.40541e-07
4.40541e-07
4.42276e-07
4.41715e-07
4.4518e-07
4.40541e-07
4.40541e-07
4.40541e-07
4.40541e-07
4.40541e-07
4.4054e-07
4.37199e-07
4.41296e-07
4.44951e-07
4.4568e-07
4.40541e-07
4.40541e-07
4.40541e-07
4.40541e-07
4.40541e-07
4.40541e-07
4.35359e-07
4.41354e-07
4.44493e-07
4.45824e-07
4.40541e-07
4.40541e-07
4.40541e-07
4.40541e-07
4.40541e-07
4.40541e-07
4.35418e-07
4.40995e-07
4.44719e-07
4.40541e-07
4.40541e-07
4.40541e-07
4.40541e-07
4.40541e-07
4.40541e-07
4.35791e-07
4.38633e-07
4.44299e-07
4.42273e-07
4.40541e-07
4.40541e-07
4.40541e-07
4.40541e-07
4.32351e-07
4.3874e-07
4.42026e-07
4.44648e-07
4.41713e-07
4.37197e-07
4.35354e-07
4.35412e-07
4.35783e-07
4.38735e-07
4.387e-07
4.41288e-07
4.41351e-07
4.40993e-07
4.3863e-07
4.4204e-07
4.3879e-07
4.38332e-07
4.40067e-07
4.39022e-07
4.39519e-07
4.39663e-07
4.38558e-07
4.38134e-07
4.38489e-07
4.40064e-07
4.41632e-07
4.3438e-07
4.3438e-07
4.3438e-07
4.3438e-07
4.36113e-07
4.35555e-07
4.3902e-07
4.3438e-07
4.3438e-07
4.3438e-07
4.3438e-07
4.3438e-07
4.3438e-07
4.31038e-07
4.35135e-07
4.3879e-07
4.39519e-07
4.3438e-07
4.3438e-07
4.3438e-07
4.3438e-07
4.3438e-07
4.3438e-07
4.29198e-07
4.35193e-07
4.38332e-07
4.39664e-07
4.3438e-07
4.3438e-07
4.3438e-07
4.3438e-07
4.3438e-07
4.3438e-07
4.29258e-07
4.34835e-07
4.38558e-07
4.3438e-07
4.3438e-07
4.3438e-07
4.3438e-07
4.3438e-07
4.3438e-07
4.29631e-07
4.32472e-07
4.38138e-07
4.36113e-07
4.3438e-07
4.3438e-07
4.3438e-07
4.3438e-07
4.2619e-07
4.32579e-07
4.35866e-07
4.38487e-07
4.35553e-07
4.31036e-07
4.29193e-07
4.29251e-07
4.29623e-07
4.32574e-07
4.32539e-07
4.35128e-07
4.35191e-07
4.34832e-07
4.32469e-07
4.35879e-07
4.32631e-07
4.32172e-07
4.33904e-07
4.32862e-07
4.33359e-07
4.33503e-07
4.32398e-07
4.31976e-07
4.32326e-07
4.33903e-07
4.3547e-07
4.2822e-07
4.2822e-07
4.2822e-07
4.28219e-07
4.29953e-07
4.29394e-07
4.32859e-07
4.2822e-07
4.2822e-07
4.2822e-07
4.2822e-07
4.28219e-07
4.2822e-07
4.24877e-07
4.28975e-07
4.3263e-07
4.33358e-07
4.28219e-07
4.28219e-07
4.28219e-07
4.28219e-07
4.28219e-07
4.28219e-07
4.23038e-07
4.29033e-07
4.32172e-07
4.33503e-07
4.28219e-07
4.28219e-07
4.28219e-07
4.28219e-07
4.28219e-07
4.28219e-07
4.23097e-07
4.28674e-07
4.32397e-07
4.28219e-07
4.28219e-07
4.28219e-07
4.28219e-07
4.28219e-07
4.28219e-07
4.2347e-07
4.26312e-07
4.31978e-07
4.29952e-07
4.28219e-07
4.28219e-07
4.28219e-07
4.28219e-07
4.20029e-07
4.26419e-07
4.29705e-07
4.32327e-07
4.29392e-07
4.24876e-07
4.23034e-07
4.23092e-07
4.23462e-07
4.26414e-07
4.26378e-07
4.28967e-07
4.29031e-07
4.28673e-07
4.26309e-07
4.29718e-07
4.2647e-07
4.26011e-07
4.27743e-07
4.26701e-07
4.27197e-07
4.27341e-07
4.26237e-07
4.25815e-07
4.26166e-07
4.27742e-07
4.29309e-07
4.22059e-07
4.22059e-07
4.22059e-07
4.22058e-07
4.23792e-07
4.23233e-07
4.26698e-07
4.22059e-07
4.22059e-07
4.22059e-07
4.22058e-07
4.22058e-07
4.22058e-07
4.18717e-07
4.22814e-07
4.26469e-07
4.27197e-07
4.22059e-07
4.22059e-07
4.22059e-07
4.22059e-07
4.22058e-07
4.22058e-07
4.16877e-07
4.22872e-07
4.26011e-07
4.27342e-07
4.22059e-07
4.22059e-07
4.22059e-07
4.22058e-07
4.22058e-07
4.22058e-07
4.16936e-07
4.22513e-07
4.26236e-07
4.22058e-07
4.22059e-07
4.22058e-07
4.22058e-07
4.22058e-07
4.22058e-07
4.17309e-07
4.20151e-07
4.25817e-07
4.23791e-07
4.22058e-07
4.22058e-07
4.22058e-07
4.22058e-07
4.13868e-07
4.20258e-07
4.23544e-07
4.26165e-07
4.23231e-07
4.18715e-07
4.16873e-07
4.16931e-07
4.17301e-07
4.20253e-07
4.20217e-07
4.22806e-07
4.22869e-07
4.22512e-07
4.20147e-07
4.23557e-07
4.20309e-07
4.1985e-07
4.21582e-07
4.20539e-07
4.21036e-07
4.21181e-07
4.20076e-07
4.19654e-07
4.20005e-07
4.21581e-07
4.23148e-07
4.15898e-07
4.15898e-07
4.15898e-07
4.15898e-07
4.17632e-07
4.17072e-07
4.20537e-07
4.15898e-07
4.15898e-07
4.15898e-07
4.15898e-07
4.15898e-07
4.15898e-07
4.12556e-07
4.16653e-07
4.20308e-07
4.21037e-07
4.15898e-07
4.15898e-07
4.15898e-07
4.15898e-07
4.15898e-07
4.15898e-07
4.10716e-07
4.16711e-07
4.1985e-07
4.21181e-07
4.15898e-07
4.15898e-07
4.15898e-07
4.15898e-07
4.15898e-07
4.15898e-07
4.10776e-07
4.16353e-07
4.20076e-07
4.15898e-07
4.15898e-07
4.15898e-07
4.15898e-07
4.15898e-07
4.15898e-07
4.11149e-07
4.1399e-07
4.19656e-07
4.1763e-07
4.15898e-07
4.15898e-07
4.15898e-07
4.15898e-07
4.07708e-07
4.14097e-07