/*--------------------------------*- C++ -*----------------------------------*\
| =========                 |                                                 |
| \\      /  F ield         | OpenFOAM: The Open Source CFD Toolbox           |
|  \\    /   O peration     | Version:  v2012                                 |
|   \\  /    A nd           | Website:  www.openfoam.com                      |
|    \\/     M anipulation  |                                                 |
\*---------------------------------------------------------------------------*/
FoamFile
{
    version     2.0;
    format      ascii;
    class       volScalarField;
    location    "0.115";
    object      p;
}
// * * * * * * * * * * * * * * * * * * * * * * * * * * * * * * * * * * * * * //

dimensions      [0 2 -2 0 0 0 0];


internalField   nonuniform List<scalar> 
189320
(
-2.08847e-06
-2.07783e-06
-2.09544e-06
-2.09917e-06
-2.11167e-06
-2.11535e-06
-2.10694e-06
-2.10415e-06
-2.10011e-06
-2.09543e-06
-2.11264e-06
-2.11408e-06
-2.11871e-06
-2.11967e-06
-2.11658e-06
-2.11338e-06
-2.10219e-06
-2.09915e-06
-2.11408e-06
-2.12073e-06
-2.12377e-06
-2.12436e-06
-2.12249e-06
-2.11742e-06
-2.11266e-06
-2.10069e-06
-2.08875e-06
-2.11168e-06
-2.11871e-06
-2.12377e-06
-2.12562e-06
-2.12592e-06
-2.12495e-06
-2.12178e-06
-2.11407e-06
-2.10302e-06
-2.07804e-06
-2.11541e-06
-2.11968e-06
-2.12436e-06
-2.12591e-06
-2.12618e-06
-2.12539e-06
-2.1227e-06
-2.11573e-06
-2.10268e-06
-2.10698e-06
-2.11659e-06
-2.12249e-06
-2.12494e-06
-2.12539e-06
-2.12398e-06
-2.12e-06
-2.11313e-06
-2.08919e-06
-2.10419e-06
-2.11338e-06
-2.11741e-06
-2.12176e-06
-2.12268e-06
-2.11999e-06
-2.11404e-06
-2.11159e-06
-2.10027e-06
-2.10012e-06
-2.10217e-06
-2.11262e-06
-2.11402e-06
-2.11569e-06
-2.11311e-06
-2.11157e-06
-2.10978e-06
-2.10064e-06
-2.10295e-06
-2.10248e-06
-2.08911e-06
-2.10021e-06
-2.10869e-06
-2.10942e-06
-2.1049e-06
-2.09956e-06
-2.09904e-06
-2.09634e-06
-2.09911e-06
-2.11272e-06
-2.11023e-06
-2.10491e-06
-2.08755e-06
-2.10189e-06
-2.10627e-06
-2.10629e-06
-2.10193e-06
-2.10862e-06
-2.11227e-06
-2.09955e-06
-2.10191e-06
-2.1164e-06
-2.11688e-06
-2.11691e-06
-2.1164e-06
-2.10187e-06
-2.12808e-06
-2.12056e-06
-2.1087e-06
-2.09903e-06
-2.10628e-06
-2.11691e-06
-2.11668e-06
-2.11668e-06
-2.11689e-06
-2.10632e-06
-2.12936e-06
-2.12084e-06
-2.10938e-06
-2.09631e-06
-2.10626e-06
-2.1169e-06
-2.11668e-06
-2.11668e-06
-2.11688e-06
-2.1063e-06
-2.13002e-06
-2.11375e-06
-2.09908e-06
-2.10192e-06
-2.1164e-06
-2.11688e-06
-2.11691e-06
-2.11639e-06
-2.10188e-06
-2.12998e-06
-2.12664e-06
-2.11267e-06
-2.10859e-06
-2.10185e-06
-2.10625e-06
-2.10628e-06
-2.10189e-06
-2.14899e-06
-2.12306e-06
-2.11632e-06
-2.11018e-06
-2.11224e-06
-2.12804e-06
-2.12933e-06
-2.13e-06
-2.12999e-06
-2.1231e-06
-2.1285e-06
-2.12052e-06
-2.12078e-06
-2.11371e-06
-2.12657e-06
-2.11627e-06
-2.09015e-06
-2.09097e-06
-2.0855e-06
-2.07948e-06
-2.07777e-06
-2.07579e-06
-2.07919e-06
-2.09338e-06
-2.09108e-06
-2.0855e-06
-2.06687e-06
-2.07998e-06
-2.08083e-06
-2.08085e-06
-2.07999e-06
-2.08999e-06
-2.09096e-06
-2.07948e-06
-2.07998e-06
-2.0864e-06
-2.08706e-06
-2.0871e-06
-2.0864e-06
-2.07998e-06
-2.10853e-06
-2.10235e-06
-2.09014e-06
-2.07776e-06
-2.08083e-06
-2.08709e-06
-2.08749e-06
-2.08751e-06
-2.08708e-06
-2.08086e-06
-2.11552e-06
-2.10194e-06
-2.09096e-06
-2.07578e-06
-2.08082e-06
-2.0871e-06
-2.0875e-06
-2.0875e-06
-2.08707e-06
-2.08085e-06
-2.11637e-06
-2.09365e-06
-2.07918e-06
-2.07998e-06
-2.0864e-06
-2.08707e-06
-2.0871e-06
-2.08639e-06
-2.07998e-06
-2.11425e-06
-2.10991e-06
-2.09334e-06
-2.08998e-06
-2.07995e-06
-2.08082e-06
-2.08084e-06
-2.07997e-06
-2.12446e-06
-2.10249e-06
-2.09836e-06
-2.09104e-06
-2.09094e-06
-2.10852e-06
-2.11549e-06
-2.11634e-06
-2.11422e-06
-2.10252e-06
-2.10967e-06
-2.10232e-06
-2.10192e-06
-2.09362e-06
-2.10988e-06
-2.09833e-06
-2.06767e-06
-2.06843e-06
-2.06361e-06
-2.05699e-06
-2.05496e-06
-2.05293e-06
-2.05672e-06
-2.07125e-06
-2.06932e-06
-2.0636e-06
-2.04393e-06
-2.05741e-06
-2.05759e-06
-2.0576e-06
-2.05742e-06
-2.06835e-06
-2.06909e-06
-2.05697e-06
-2.05741e-06
-2.05958e-06
-2.05995e-06
-2.05997e-06
-2.05959e-06
-2.05741e-06
-2.08613e-06
-2.08013e-06
-2.06766e-06
-2.05496e-06
-2.05758e-06
-2.05996e-06
-2.06029e-06
-2.06031e-06
-2.05996e-06
-2.0576e-06
-2.0932e-06
-2.07942e-06
-2.06842e-06
-2.05292e-06
-2.05758e-06
-2.05997e-06
-2.06031e-06
-2.06031e-06
-2.05996e-06
-2.0576e-06
-2.09372e-06
-2.07088e-06
-2.05671e-06
-2.05741e-06
-2.05959e-06
-2.05995e-06
-2.05997e-06
-2.05958e-06
-2.05742e-06
-2.09152e-06
-2.08758e-06
-2.07124e-06
-2.06833e-06
-2.0574e-06
-2.05757e-06
-2.05758e-06
-2.05741e-06
-2.1031e-06
-2.08006e-06
-2.07636e-06
-2.06928e-06
-2.06908e-06
-2.08612e-06
-2.09319e-06
-2.09371e-06
-2.09155e-06
-2.08009e-06
-2.08808e-06
-2.08013e-06
-2.07941e-06
-2.07086e-06
-2.08758e-06
-2.07635e-06
-2.04462e-06
-2.04536e-06
-2.04072e-06
-2.03387e-06
-2.03174e-06
-2.02964e-06
-2.03362e-06
-2.04829e-06
-2.04644e-06
-2.04073e-06
-2.02057e-06
-2.03425e-06
-2.0343e-06
-2.0343e-06
-2.03426e-06
-2.04549e-06
-2.04623e-06
-2.03385e-06
-2.03425e-06
-2.03504e-06
-2.03513e-06
-2.03514e-06
-2.03504e-06
-2.03426e-06
-2.06302e-06
-2.05719e-06
-2.04463e-06
-2.03174e-06
-2.0343e-06
-2.03514e-06
-2.03525e-06
-2.03525e-06
-2.03514e-06
-2.0343e-06
-2.07008e-06
-2.05634e-06
-2.04535e-06
-2.02963e-06
-2.0343e-06
-2.03514e-06
-2.03525e-06
-2.03526e-06
-2.03513e-06
-2.0343e-06
-2.07056e-06
-2.04775e-06
-2.03361e-06
-2.03425e-06
-2.03503e-06
-2.03514e-06
-2.03515e-06
-2.03504e-06
-2.03425e-06
-2.06818e-06
-2.06459e-06
-2.04828e-06
-2.04549e-06
-2.03425e-06
-2.03429e-06
-2.0343e-06
-2.03425e-06
-2.08043e-06
-2.05702e-06
-2.05346e-06
-2.04644e-06
-2.04622e-06
-2.06301e-06
-2.07007e-06
-2.07056e-06
-2.06819e-06
-2.05706e-06
-2.06531e-06
-2.05717e-06
-2.05634e-06
-2.04775e-06
-2.06457e-06
-2.05344e-06
-2.02132e-06
-2.02205e-06
-2.01749e-06
-2.01056e-06
-2.00837e-06
-2.00622e-06
-2.01031e-06
-2.02505e-06
-2.02325e-06
-2.01749e-06
-1.99714e-06
-2.0109e-06
-2.01091e-06
-2.01091e-06
-2.01091e-06
-2.02226e-06
-2.02302e-06
-2.01055e-06
-2.01091e-06
-2.0112e-06
-2.01124e-06
-2.01124e-06
-2.0112e-06
-2.01091e-06
-2.03973e-06
-2.03394e-06
-2.02139e-06
-2.00838e-06
-2.01091e-06
-2.01124e-06
-2.01127e-06
-2.01127e-06
-2.01124e-06
-2.01091e-06
-2.04674e-06
-2.03306e-06
-2.02207e-06
-2.00622e-06
-2.01091e-06
-2.01124e-06
-2.01127e-06
-2.01127e-06
-2.01124e-06
-2.01091e-06
-2.0472e-06
-2.02445e-06
-2.01031e-06
-2.01091e-06
-2.0112e-06
-2.01124e-06
-2.01124e-06
-2.0112e-06
-2.01091e-06
-2.0448e-06
-2.04132e-06
-2.02505e-06
-2.02226e-06
-2.01091e-06
-2.01091e-06
-2.01092e-06
-2.01091e-06
-2.05731e-06
-2.03377e-06
-2.03023e-06
-2.02325e-06
-2.02302e-06
-2.03972e-06
-2.04674e-06
-2.04721e-06
-2.04482e-06
-2.03381e-06
-2.04216e-06
-2.03394e-06
-2.03305e-06
-2.02445e-06
-2.04131e-06
-2.03023e-06
-1.99795e-06
-1.99868e-06
-1.99415e-06
-1.98718e-06
-1.98496e-06
-1.98279e-06
-1.98694e-06
-2.00169e-06
-1.9999e-06
-1.99415e-06
-1.97371e-06
-1.98752e-06
-1.98751e-06
-1.98751e-06
-1.98752e-06
-1.99891e-06
-1.99969e-06
-1.98717e-06
-1.98751e-06
-1.98762e-06
-1.98763e-06
-1.98763e-06
-1.98762e-06
-1.98751e-06
-2.01636e-06
-2.01059e-06
-1.998e-06
-1.98495e-06
-1.98751e-06
-1.98764e-06
-1.98765e-06
-1.98765e-06
-1.98764e-06
-1.98751e-06
-2.02335e-06
-2.00969e-06
-1.99869e-06
-1.9828e-06
-1.98751e-06
-1.98764e-06
-1.98765e-06
-1.98765e-06
-1.98764e-06
-1.98751e-06
-2.02381e-06
-2.00108e-06
-1.98695e-06
-1.98751e-06
-1.98762e-06
-1.98764e-06
-1.98763e-06
-1.98762e-06
-1.98751e-06
-2.02142e-06
-2.01797e-06
-2.00169e-06
-1.99891e-06
-1.98752e-06
-1.98751e-06
-1.98752e-06
-1.98752e-06
-2.03403e-06
-2.01042e-06
-2.00688e-06
-1.99991e-06
-1.99968e-06
-2.01637e-06
-2.02336e-06
-2.0238e-06
-2.02143e-06
-2.01046e-06
-2.01884e-06
-2.0106e-06
-2.00969e-06
-2.00107e-06
-2.01798e-06
-2.00688e-06
-1.97455e-06
-1.97528e-06
-1.97076e-06
-1.96378e-06
-1.96154e-06
-1.95938e-06
-1.96355e-06
-1.9783e-06
-1.97651e-06
-1.97076e-06
-1.95028e-06
-1.9641e-06
-1.96411e-06
-1.96411e-06
-1.96411e-06
-1.97551e-06
-1.9763e-06
-1.96377e-06
-1.96411e-06
-1.96414e-06
-1.96415e-06
-1.96415e-06
-1.96414e-06
-1.96411e-06
-1.99296e-06
-1.9872e-06
-1.97461e-06
-1.96154e-06
-1.96411e-06
-1.96415e-06
-1.96416e-06
-1.96416e-06
-1.96415e-06
-1.96411e-06
-1.99995e-06
-1.98629e-06
-1.97529e-06
-1.95938e-06
-1.96411e-06
-1.96415e-06
-1.96416e-06
-1.96416e-06
-1.96415e-06
-1.96411e-06
-2.00039e-06
-1.97767e-06
-1.96355e-06
-1.96411e-06
-1.96414e-06
-1.96415e-06
-1.96415e-06
-1.96414e-06
-1.96411e-06
-1.99799e-06
-1.99458e-06
-1.9783e-06
-1.97552e-06
-1.96411e-06
-1.96411e-06
-1.96411e-06
-1.96411e-06
-2.01068e-06
-1.98705e-06
-1.9835e-06
-1.97652e-06
-1.9763e-06
-1.99296e-06
-1.99994e-06
-2.00038e-06
-1.99801e-06
-1.98707e-06
-1.99545e-06
-1.9872e-06
-1.98629e-06
-1.97766e-06
-1.99458e-06
-1.98351e-06
-1.95114e-06
-1.95187e-06
-1.94736e-06
-1.94038e-06
-1.93813e-06
-1.93596e-06
-1.94014e-06
-1.95489e-06
-1.95312e-06
-1.94736e-06
-1.92687e-06
-1.9407e-06
-1.94069e-06
-1.94069e-06
-1.94069e-06
-1.95211e-06
-1.95291e-06
-1.94037e-06
-1.94069e-06
-1.94072e-06
-1.94072e-06
-1.94072e-06
-1.94072e-06
-1.9407e-06
-1.96957e-06
-1.9638e-06
-1.95119e-06
-1.93813e-06
-1.9407e-06
-1.94072e-06
-1.94072e-06
-1.94072e-06
-1.94072e-06
-1.9407e-06
-1.97655e-06
-1.96289e-06
-1.95188e-06
-1.93596e-06
-1.9407e-06
-1.94072e-06
-1.94072e-06
-1.94072e-06
-1.94072e-06
-1.9407e-06
-1.97699e-06
-1.95427e-06
-1.94015e-06
-1.9407e-06
-1.94072e-06
-1.94073e-06
-1.94072e-06
-1.94072e-06
-1.9407e-06
-1.97459e-06
-1.97118e-06
-1.95489e-06
-1.95212e-06
-1.94069e-06
-1.94069e-06
-1.9407e-06
-1.94069e-06
-1.98728e-06
-1.96364e-06
-1.96009e-06
-1.95312e-06
-1.9529e-06
-1.96957e-06
-1.97654e-06
-1.97698e-06
-1.97461e-06
-1.96367e-06
-1.97206e-06
-1.9638e-06
-1.96289e-06
-1.95426e-06
-1.97118e-06
-1.9601e-06
-1.92774e-06
-1.92847e-06
-1.92396e-06
-1.91697e-06
-1.91472e-06
-1.91255e-06
-1.91674e-06
-1.93149e-06
-1.92971e-06
-1.92396e-06
-1.90346e-06
-1.91729e-06
-1.91729e-06
-1.91729e-06
-1.91729e-06
-1.92871e-06
-1.9295e-06
-1.91696e-06
-1.91729e-06
-1.9173e-06
-1.9173e-06
-1.9173e-06
-1.9173e-06
-1.91729e-06
-1.94616e-06
-1.9404e-06
-1.92779e-06
-1.91472e-06
-1.91729e-06
-1.9173e-06
-1.9173e-06
-1.9173e-06
-1.9173e-06
-1.91729e-06
-1.95314e-06
-1.93949e-06
-1.92848e-06
-1.91255e-06
-1.91729e-06
-1.9173e-06
-1.9173e-06
-1.9173e-06
-1.9173e-06
-1.91729e-06
-1.95358e-06
-1.93087e-06
-1.91674e-06
-1.91729e-06
-1.9173e-06
-1.9173e-06
-1.9173e-06
-1.9173e-06
-1.91729e-06
-1.95118e-06
-1.94778e-06
-1.93149e-06
-1.92872e-06
-1.91729e-06
-1.91729e-06
-1.91729e-06
-1.91729e-06
-1.96388e-06
-1.94024e-06
-1.93669e-06
-1.92972e-06
-1.9295e-06
-1.94616e-06
-1.95314e-06
-1.95357e-06
-1.9512e-06
-1.94027e-06
-1.94866e-06
-1.9404e-06
-1.93948e-06
-1.93086e-06
-1.94778e-06
-1.9367e-06
-1.90433e-06
-1.90506e-06
-1.90055e-06
-1.89356e-06
-1.89131e-06
-1.88914e-06
-1.89333e-06
-1.90808e-06
-1.90631e-06
-1.90055e-06
-1.88005e-06
-1.89388e-06
-1.89388e-06
-1.89388e-06
-1.89388e-06
-1.9053e-06
-1.9061e-06
-1.89355e-06
-1.89388e-06
-1.89388e-06
-1.89388e-06
-1.89388e-06
-1.89388e-06
-1.89388e-06
-1.92275e-06
-1.91699e-06
-1.90437e-06
-1.89131e-06
-1.89388e-06
-1.89388e-06
-1.89389e-06
-1.89389e-06
-1.89388e-06
-1.89388e-06
-1.92973e-06
-1.91608e-06
-1.90507e-06
-1.88914e-06
-1.89388e-06
-1.89388e-06
-1.89389e-06
-1.89389e-06
-1.89388e-06
-1.89388e-06
-1.93017e-06
-1.90746e-06
-1.89334e-06
-1.89388e-06
-1.89388e-06
-1.89388e-06
-1.89388e-06
-1.89388e-06
-1.89388e-06
-1.92777e-06
-1.92437e-06
-1.90808e-06
-1.90531e-06
-1.89388e-06
-1.89388e-06
-1.89388e-06
-1.89388e-06
-1.94047e-06
-1.91683e-06
-1.91328e-06
-1.90631e-06
-1.90609e-06
-1.92275e-06
-1.92973e-06
-1.93016e-06
-1.92779e-06
-1.91686e-06
-1.92525e-06
-1.91699e-06
-1.91607e-06
-1.90745e-06
-1.92437e-06
-1.91329e-06
-1.88092e-06
-1.88165e-06
-1.87715e-06
-1.87016e-06
-1.8679e-06
-1.86573e-06
-1.86993e-06
-1.88467e-06
-1.8829e-06
-1.87714e-06
-1.85664e-06
-1.87048e-06
-1.87048e-06
-1.87048e-06
-1.87048e-06
-1.8819e-06
-1.88269e-06
-1.87015e-06
-1.87048e-06
-1.87048e-06
-1.87048e-06
-1.87048e-06
-1.87048e-06
-1.87048e-06
-1.89935e-06
-1.89358e-06
-1.88097e-06
-1.8679e-06
-1.87048e-06
-1.87048e-06
-1.87048e-06
-1.87048e-06
-1.87048e-06
-1.87048e-06
-1.90632e-06
-1.89267e-06
-1.88166e-06
-1.86573e-06
-1.87048e-06
-1.87048e-06
-1.87048e-06
-1.87048e-06
-1.87048e-06
-1.87048e-06
-1.90676e-06
-1.88405e-06
-1.86993e-06
-1.87048e-06
-1.87048e-06
-1.87048e-06
-1.87048e-06
-1.87048e-06
-1.87048e-06
-1.90437e-06
-1.90096e-06
-1.88468e-06
-1.8819e-06
-1.87048e-06
-1.87048e-06
-1.87048e-06
-1.87048e-06
-1.91707e-06
-1.89343e-06
-1.88988e-06
-1.8829e-06
-1.88268e-06
-1.89935e-06
-1.90632e-06
-1.90675e-06
-1.90439e-06
-1.89346e-06
-1.90185e-06
-1.89358e-06
-1.89267e-06
-1.88404e-06
-1.90096e-06
-1.88989e-06
-1.85752e-06
-1.85825e-06
-1.85374e-06
-1.84675e-06
-1.8445e-06
-1.84233e-06
-1.84652e-06
-1.86127e-06
-1.85949e-06
-1.85374e-06
-1.83323e-06
-1.84707e-06
-1.84707e-06
-1.84707e-06
-1.84707e-06
-1.85849e-06
-1.85928e-06
-1.84674e-06
-1.84707e-06
-1.84707e-06
-1.84707e-06
-1.84707e-06
-1.84707e-06
-1.84707e-06
-1.87594e-06
-1.87018e-06
-1.85756e-06
-1.8445e-06
-1.84707e-06
-1.84707e-06
-1.84707e-06
-1.84707e-06
-1.84707e-06
-1.84707e-06
-1.88291e-06
-1.86927e-06
-1.85826e-06
-1.84233e-06
-1.84707e-06
-1.84707e-06
-1.84707e-06
-1.84707e-06
-1.84707e-06
-1.84707e-06
-1.88335e-06
-1.86065e-06
-1.84652e-06
-1.84707e-06
-1.84707e-06
-1.84707e-06
-1.84707e-06
-1.84707e-06
-1.84707e-06
-1.88096e-06
-1.87755e-06
-1.86127e-06
-1.8585e-06
-1.84707e-06
-1.84707e-06
-1.84707e-06
-1.84707e-06
-1.89366e-06
-1.87002e-06
-1.86647e-06
-1.8595e-06
-1.85928e-06
-1.87594e-06
-1.88292e-06
-1.88335e-06
-1.88098e-06
-1.87005e-06
-1.87844e-06
-1.87018e-06
-1.86926e-06
-1.86064e-06
-1.87756e-06
-1.86648e-06
-1.83411e-06
-1.83484e-06
-1.83034e-06
-1.82335e-06
-1.82109e-06
-1.81892e-06
-1.82312e-06
-1.83786e-06
-1.83608e-06
-1.83033e-06
-1.80983e-06
-1.82366e-06
-1.82366e-06
-1.82366e-06
-1.82366e-06
-1.83508e-06
-1.83588e-06
-1.82333e-06
-1.82366e-06
-1.82366e-06
-1.82366e-06
-1.82366e-06
-1.82366e-06
-1.82366e-06
-1.85253e-06
-1.84677e-06
-1.83416e-06
-1.82109e-06
-1.82366e-06
-1.82366e-06
-1.82366e-06
-1.82366e-06
-1.82366e-06
-1.82366e-06
-1.85951e-06
-1.84586e-06
-1.83485e-06
-1.81892e-06
-1.82366e-06
-1.82366e-06
-1.82366e-06
-1.82366e-06
-1.82366e-06
-1.82366e-06
-1.85995e-06
-1.83724e-06
-1.82312e-06
-1.82366e-06
-1.82366e-06
-1.82366e-06
-1.82366e-06
-1.82366e-06
-1.82366e-06
-1.85756e-06
-1.85415e-06
-1.83787e-06
-1.83509e-06
-1.82366e-06
-1.82366e-06
-1.82366e-06
-1.82366e-06
-1.87026e-06
-1.84662e-06
-1.84306e-06
-1.83609e-06
-1.83587e-06
-1.85254e-06
-1.85951e-06
-1.85995e-06
-1.85758e-06
-1.84665e-06
-1.85503e-06
-1.84677e-06
-1.84586e-06
-1.83723e-06
-1.85415e-06
-1.84308e-06
-1.8107e-06
-1.81143e-06
-1.80693e-06
-1.79994e-06
-1.79768e-06
-1.79551e-06
-1.79971e-06
-1.81446e-06
-1.81267e-06
-1.80693e-06
-1.78642e-06
-1.80026e-06
-1.80026e-06
-1.80026e-06
-1.80026e-06
-1.81167e-06
-1.81247e-06
-1.79993e-06
-1.80026e-06
-1.80026e-06
-1.80026e-06
-1.80026e-06
-1.80026e-06
-1.80026e-06
-1.82913e-06
-1.82336e-06
-1.81075e-06
-1.79768e-06
-1.80026e-06
-1.80026e-06
-1.80026e-06
-1.80026e-06
-1.80026e-06
-1.80026e-06
-1.8361e-06
-1.82245e-06
-1.81144e-06
-1.79551e-06
-1.80026e-06
-1.80026e-06
-1.80026e-06
-1.80026e-06
-1.80026e-06
-1.80026e-06
-1.83654e-06
-1.81383e-06
-1.79971e-06
-1.80026e-06
-1.80026e-06
-1.80026e-06
-1.80026e-06
-1.80026e-06
-1.80026e-06
-1.83415e-06
-1.83074e-06
-1.81446e-06
-1.81168e-06
-1.80026e-06
-1.80026e-06
-1.80026e-06
-1.80026e-06
-1.84685e-06
-1.82321e-06
-1.81966e-06
-1.81269e-06
-1.81247e-06
-1.82913e-06
-1.8361e-06
-1.83654e-06
-1.83417e-06
-1.82324e-06
-1.83163e-06
-1.82337e-06
-1.82245e-06
-1.81382e-06
-1.83074e-06
-1.81967e-06
-1.78729e-06
-1.78802e-06
-1.78352e-06
-1.77653e-06
-1.77427e-06
-1.7721e-06
-1.7763e-06
-1.79105e-06
-1.78927e-06
-1.78352e-06
-1.76301e-06
-1.77685e-06
-1.77685e-06
-1.77685e-06
-1.77685e-06
-1.78826e-06
-1.78906e-06
-1.77652e-06
-1.77685e-06
-1.77685e-06
-1.77685e-06
-1.77685e-06
-1.77685e-06
-1.77685e-06
-1.80572e-06
-1.79995e-06
-1.78734e-06
-1.77427e-06
-1.77685e-06
-1.77685e-06
-1.77685e-06
-1.77685e-06
-1.77685e-06
-1.77685e-06
-1.81269e-06
-1.79904e-06
-1.78803e-06
-1.7721e-06
-1.77685e-06
-1.77685e-06
-1.77685e-06
-1.77685e-06
-1.77685e-06
-1.77685e-06
-1.81313e-06
-1.79042e-06
-1.7763e-06
-1.77685e-06
-1.77685e-06
-1.77685e-06
-1.77685e-06
-1.77685e-06
-1.77685e-06
-1.81074e-06
-1.80733e-06
-1.79105e-06
-1.78827e-06
-1.77685e-06
-1.77685e-06
-1.77685e-06
-1.77685e-06
-1.82344e-06
-1.7998e-06
-1.79625e-06
-1.78928e-06
-1.78906e-06
-1.80572e-06
-1.81269e-06
-1.81313e-06
-1.81076e-06
-1.79983e-06
-1.80822e-06
-1.79996e-06
-1.79904e-06
-1.79041e-06
-1.80733e-06
-1.79626e-06
-1.76388e-06
-1.76461e-06
-1.76011e-06
-1.75312e-06
-1.75086e-06
-1.74869e-06
-1.75289e-06
-1.76763e-06
-1.76585e-06
-1.7601e-06
-1.7396e-06
-1.75343e-06
-1.75343e-06
-1.75343e-06
-1.75343e-06
-1.76485e-06
-1.76565e-06
-1.75311e-06
-1.75343e-06
-1.75343e-06
-1.75343e-06
-1.75343e-06
-1.75343e-06
-1.75343e-06
-1.7823e-06
-1.77654e-06
-1.76393e-06
-1.75086e-06
-1.75344e-06
-1.75344e-06
-1.75344e-06
-1.75344e-06
-1.75344e-06
-1.75344e-06
-1.78928e-06
-1.77563e-06
-1.76462e-06
-1.74869e-06
-1.75344e-06
-1.75344e-06
-1.75344e-06
-1.75344e-06
-1.75344e-06
-1.75344e-06
-1.78972e-06
-1.76701e-06
-1.75289e-06
-1.75344e-06
-1.75344e-06
-1.75344e-06
-1.75344e-06
-1.75344e-06
-1.75344e-06
-1.78733e-06
-1.78392e-06
-1.76764e-06
-1.76486e-06
-1.75344e-06
-1.75344e-06
-1.75344e-06
-1.75344e-06
-1.80003e-06
-1.77639e-06
-1.77284e-06
-1.76586e-06
-1.76564e-06
-1.78231e-06
-1.78928e-06
-1.78972e-06
-1.78735e-06
-1.77642e-06
-1.78481e-06
-1.77654e-06
-1.77563e-06
-1.767e-06
-1.78392e-06
-1.77285e-06
-1.74048e-06
-1.7412e-06
-1.7367e-06
-1.72971e-06
-1.72745e-06
-1.72528e-06
-1.72948e-06
-1.74422e-06
-1.74244e-06
-1.73669e-06
-1.71619e-06
-1.73003e-06
-1.73003e-06
-1.73003e-06
-1.73003e-06
-1.74144e-06
-1.74224e-06
-1.7297e-06
-1.73003e-06
-1.73003e-06
-1.73003e-06
-1.73003e-06
-1.73003e-06
-1.73003e-06
-1.7589e-06
-1.75313e-06
-1.74052e-06
-1.72745e-06
-1.73003e-06
-1.73003e-06
-1.73003e-06
-1.73003e-06
-1.73003e-06
-1.73003e-06
-1.76587e-06
-1.75222e-06
-1.74121e-06
-1.72528e-06
-1.73003e-06
-1.73003e-06
-1.73003e-06
-1.73003e-06
-1.73003e-06
-1.73003e-06
-1.76631e-06
-1.7436e-06
-1.72948e-06
-1.73003e-06
-1.73003e-06
-1.73003e-06
-1.73003e-06
-1.73003e-06
-1.73003e-06
-1.76392e-06
-1.76051e-06
-1.74423e-06
-1.74145e-06
-1.73003e-06
-1.73003e-06
-1.73003e-06
-1.73003e-06
-1.77662e-06
-1.75298e-06
-1.74943e-06
-1.74246e-06
-1.74224e-06
-1.7589e-06
-1.76587e-06
-1.76631e-06
-1.76394e-06
-1.75301e-06
-1.7614e-06
-1.75314e-06
-1.75222e-06
-1.74359e-06
-1.76052e-06
-1.74944e-06
-1.71707e-06
-1.71779e-06
-1.71329e-06
-1.7063e-06
-1.70405e-06
-1.70188e-06
-1.70607e-06
-1.72082e-06
-1.71904e-06
-1.71329e-06
-1.69278e-06
-1.70662e-06
-1.70662e-06
-1.70662e-06
-1.70662e-06
-1.71804e-06
-1.71883e-06
-1.70629e-06
-1.70662e-06
-1.70662e-06
-1.70662e-06
-1.70662e-06
-1.70662e-06
-1.70662e-06
-1.73549e-06
-1.72973e-06
-1.71711e-06
-1.70404e-06
-1.70662e-06
-1.70662e-06
-1.70662e-06
-1.70662e-06
-1.70662e-06
-1.70662e-06
-1.74246e-06
-1.72881e-06
-1.7178e-06
-1.70188e-06
-1.70662e-06
-1.70662e-06
-1.70662e-06
-1.70662e-06
-1.70662e-06
-1.70662e-06
-1.7429e-06
-1.7202e-06
-1.70607e-06
-1.70662e-06
-1.70662e-06
-1.70662e-06
-1.70662e-06
-1.70662e-06
-1.70662e-06
-1.74051e-06
-1.7371e-06
-1.72082e-06
-1.71805e-06
-1.70662e-06
-1.70662e-06
-1.70662e-06
-1.70662e-06
-1.75321e-06
-1.72957e-06
-1.72602e-06
-1.71905e-06
-1.71883e-06
-1.73549e-06
-1.74247e-06
-1.7429e-06
-1.74053e-06
-1.7296e-06
-1.73799e-06
-1.72973e-06
-1.72882e-06
-1.72019e-06
-1.73711e-06
-1.72603e-06
-1.69366e-06
-1.69439e-06
-1.68988e-06
-1.6829e-06
-1.68064e-06
-1.67847e-06
-1.68267e-06
-1.69742e-06
-1.69563e-06
-1.68988e-06
-1.66937e-06
-1.68321e-06
-1.68321e-06
-1.68321e-06
-1.68321e-06
-1.69463e-06
-1.69542e-06
-1.68288e-06
-1.68321e-06
-1.68321e-06
-1.68321e-06
-1.68321e-06
-1.68321e-06
-1.68321e-06
-1.71208e-06
-1.70632e-06
-1.6937e-06
-1.68064e-06
-1.68321e-06
-1.68321e-06
-1.68321e-06
-1.68321e-06
-1.68321e-06
-1.68321e-06
-1.71906e-06
-1.70541e-06
-1.6944e-06
-1.67847e-06
-1.68321e-06
-1.68321e-06
-1.68321e-06
-1.68321e-06
-1.68321e-06
-1.68321e-06
-1.71949e-06
-1.69679e-06
-1.68267e-06
-1.68321e-06
-1.68321e-06
-1.68321e-06
-1.68321e-06
-1.68321e-06
-1.68321e-06
-1.7171e-06
-1.7137e-06
-1.69742e-06
-1.69464e-06
-1.68321e-06
-1.68321e-06
-1.68321e-06
-1.68321e-06
-1.72981e-06
-1.70617e-06
-1.70261e-06
-1.69564e-06
-1.69542e-06
-1.71208e-06
-1.71906e-06
-1.71949e-06
-1.71713e-06
-1.7062e-06
-1.71458e-06
-1.70632e-06
-1.70541e-06
-1.69678e-06
-1.7137e-06
-1.70262e-06
-1.67025e-06
-1.67098e-06
-1.66648e-06
-1.65949e-06
-1.65723e-06
-1.65506e-06
-1.65926e-06
-1.67401e-06
-1.67223e-06
-1.66647e-06
-1.64597e-06
-1.65981e-06
-1.65981e-06
-1.65981e-06
-1.65981e-06
-1.67122e-06
-1.67202e-06
-1.65948e-06
-1.65981e-06
-1.65981e-06
-1.65981e-06
-1.65981e-06
-1.65981e-06
-1.65981e-06
-1.68868e-06
-1.68291e-06
-1.6703e-06
-1.65723e-06
-1.65981e-06
-1.65981e-06
-1.65981e-06
-1.65981e-06
-1.65981e-06
-1.65981e-06
-1.69565e-06
-1.682e-06
-1.67099e-06
-1.65506e-06
-1.65981e-06
-1.65981e-06
-1.65981e-06
-1.65981e-06
-1.65981e-06
-1.65981e-06
-1.69609e-06
-1.67338e-06
-1.65926e-06
-1.65981e-06
-1.65981e-06
-1.65981e-06
-1.65981e-06
-1.65981e-06
-1.65981e-06
-1.6937e-06
-1.69029e-06
-1.67401e-06
-1.67123e-06
-1.65981e-06
-1.65981e-06
-1.65981e-06
-1.65981e-06
-1.7064e-06
-1.68276e-06
-1.67921e-06
-1.67224e-06
-1.67202e-06
-1.68868e-06
-1.69565e-06
-1.69609e-06
-1.69372e-06
-1.68279e-06
-1.69118e-06
-1.68291e-06
-1.682e-06
-1.67338e-06
-1.69029e-06
-1.67922e-06
-1.64685e-06
-1.64758e-06
-1.64307e-06
-1.63609e-06
-1.63383e-06
-1.63166e-06
-1.63586e-06
-1.6506e-06
-1.64882e-06
-1.64307e-06
-1.62256e-06
-1.6364e-06
-1.6364e-06
-1.6364e-06
-1.6364e-06
-1.64782e-06
-1.64861e-06
-1.63607e-06
-1.6364e-06
-1.6364e-06
-1.6364e-06
-1.6364e-06
-1.6364e-06
-1.6364e-06
-1.66527e-06
-1.65951e-06
-1.64689e-06
-1.63382e-06
-1.6364e-06
-1.6364e-06
-1.6364e-06
-1.6364e-06
-1.6364e-06
-1.6364e-06
-1.67224e-06
-1.65859e-06
-1.64758e-06
-1.63166e-06
-1.6364e-06
-1.6364e-06
-1.6364e-06
-1.6364e-06
-1.6364e-06
-1.6364e-06
-1.67268e-06
-1.64998e-06
-1.63585e-06
-1.6364e-06
-1.6364e-06
-1.6364e-06
-1.6364e-06
-1.6364e-06
-1.6364e-06
-1.67029e-06
-1.66688e-06
-1.6506e-06
-1.64783e-06
-1.6364e-06
-1.6364e-06
-1.6364e-06
-1.6364e-06
-1.68299e-06
-1.65935e-06
-1.6558e-06
-1.64883e-06
-1.64861e-06
-1.66527e-06
-1.67224e-06
-1.67268e-06
-1.67032e-06
-1.65938e-06
-1.66777e-06
-1.65951e-06
-1.6586e-06
-1.64997e-06
-1.66689e-06
-1.65581e-06
-1.62344e-06
-1.62417e-06
-1.61967e-06
-1.61268e-06
-1.61042e-06
-1.60825e-06
-1.61245e-06
-1.6272e-06
-1.62541e-06
-1.61966e-06
-1.59915e-06
-1.61299e-06
-1.61299e-06
-1.61299e-06
-1.61299e-06
-1.62441e-06
-1.6252e-06
-1.61266e-06
-1.61299e-06
-1.61299e-06
-1.61299e-06
-1.61299e-06
-1.61299e-06
-1.61299e-06
-1.64186e-06
-1.6361e-06
-1.62349e-06
-1.61042e-06
-1.61299e-06
-1.61299e-06
-1.61299e-06
-1.61299e-06
-1.61299e-06
-1.61299e-06
-1.64884e-06
-1.63519e-06
-1.62418e-06
-1.60825e-06
-1.61299e-06
-1.61299e-06
-1.61299e-06
-1.61299e-06
-1.61299e-06
-1.61299e-06
-1.64927e-06
-1.62657e-06
-1.61245e-06
-1.61299e-06
-1.61299e-06
-1.61299e-06
-1.61299e-06
-1.61299e-06
-1.61299e-06
-1.64688e-06
-1.64348e-06
-1.62719e-06
-1.62442e-06
-1.61299e-06
-1.61299e-06
-1.61299e-06
-1.61299e-06
-1.65958e-06
-1.63594e-06
-1.63239e-06
-1.62542e-06
-1.6252e-06
-1.64186e-06
-1.64884e-06
-1.64928e-06
-1.64691e-06
-1.63598e-06
-1.64436e-06
-1.6361e-06
-1.63519e-06
-1.62656e-06
-1.64348e-06
-1.6324e-06
-1.60003e-06
-1.60076e-06
-1.59626e-06
-1.58927e-06
-1.58701e-06
-1.58484e-06
-1.58904e-06
-1.60379e-06
-1.602e-06
-1.59625e-06
-1.57575e-06
-1.58958e-06
-1.58958e-06
-1.58958e-06
-1.58958e-06
-1.601e-06
-1.60179e-06
-1.58925e-06
-1.58958e-06
-1.58958e-06
-1.58958e-06
-1.58958e-06
-1.58958e-06
-1.58958e-06
-1.61845e-06
-1.61269e-06
-1.60008e-06
-1.58701e-06
-1.58958e-06
-1.58958e-06
-1.58958e-06
-1.58958e-06
-1.58958e-06
-1.58958e-06
-1.62543e-06
-1.61178e-06
-1.60077e-06
-1.58484e-06
-1.58958e-06
-1.58958e-06
-1.58958e-06
-1.58958e-06
-1.58958e-06
-1.58958e-06
-1.62586e-06
-1.60316e-06
-1.58904e-06
-1.58958e-06
-1.58958e-06
-1.58958e-06
-1.58958e-06
-1.58958e-06
-1.58958e-06
-1.62347e-06
-1.62007e-06
-1.60379e-06
-1.60101e-06
-1.58958e-06
-1.58958e-06
-1.58958e-06
-1.58958e-06
-1.63618e-06
-1.61254e-06
-1.60898e-06
-1.60201e-06
-1.60179e-06
-1.61846e-06
-1.62543e-06
-1.62587e-06
-1.6235e-06
-1.61257e-06
-1.62095e-06
-1.61269e-06
-1.61178e-06
-1.60316e-06
-1.62007e-06
-1.60899e-06
-1.57662e-06
-1.57735e-06
-1.57285e-06
-1.56586e-06
-1.5636e-06
-1.56143e-06
-1.56563e-06
-1.58038e-06
-1.57859e-06
-1.57284e-06
-1.55234e-06
-1.56617e-06
-1.56617e-06
-1.56617e-06
-1.56617e-06
-1.57759e-06
-1.57838e-06
-1.56584e-06
-1.56617e-06
-1.56617e-06
-1.56617e-06
-1.56617e-06
-1.56617e-06
-1.56617e-06
-1.59504e-06
-1.58928e-06
-1.57667e-06
-1.5636e-06
-1.56617e-06
-1.56617e-06
-1.56617e-06
-1.56617e-06
-1.56617e-06
-1.56617e-06
-1.60202e-06
-1.58837e-06
-1.57736e-06
-1.56143e-06
-1.56617e-06
-1.56617e-06
-1.56617e-06
-1.56617e-06
-1.56617e-06
-1.56617e-06
-1.60245e-06
-1.57975e-06
-1.56563e-06
-1.56617e-06
-1.56617e-06
-1.56617e-06
-1.56617e-06
-1.56617e-06
-1.56617e-06
-1.60006e-06
-1.59666e-06
-1.58038e-06
-1.5776e-06
-1.56617e-06
-1.56617e-06
-1.56617e-06
-1.56617e-06
-1.61276e-06
-1.58913e-06
-1.58557e-06
-1.5786e-06
-1.57838e-06
-1.59504e-06
-1.60202e-06
-1.60246e-06
-1.60009e-06
-1.58916e-06
-1.59754e-06
-1.58928e-06
-1.58837e-06
-1.57975e-06
-1.59666e-06
-1.58558e-06
-1.55321e-06
-1.55394e-06
-1.54944e-06
-1.54245e-06
-1.54019e-06
-1.53802e-06
-1.54222e-06
-1.55697e-06
-1.55518e-06
-1.54943e-06
-1.52893e-06
-1.54276e-06
-1.54276e-06
-1.54276e-06
-1.54276e-06
-1.55418e-06
-1.55497e-06
-1.54243e-06
-1.54276e-06
-1.54276e-06
-1.54276e-06
-1.54276e-06
-1.54276e-06
-1.54276e-06
-1.57163e-06
-1.56587e-06
-1.55325e-06
-1.54019e-06
-1.54276e-06
-1.54276e-06
-1.54276e-06
-1.54276e-06
-1.54276e-06
-1.54276e-06
-1.57861e-06
-1.56496e-06
-1.55395e-06
-1.53802e-06
-1.54276e-06
-1.54276e-06
-1.54276e-06
-1.54276e-06
-1.54276e-06
-1.54276e-06
-1.57904e-06
-1.55634e-06
-1.54222e-06
-1.54276e-06
-1.54276e-06
-1.54276e-06
-1.54276e-06
-1.54276e-06
-1.54276e-06
-1.57665e-06
-1.57325e-06
-1.55697e-06
-1.55419e-06
-1.54276e-06
-1.54276e-06
-1.54276e-06
-1.54276e-06
-1.58935e-06
-1.56572e-06
-1.56216e-06
-1.55519e-06
-1.55497e-06
-1.57163e-06
-1.57861e-06
-1.57905e-06
-1.57668e-06
-1.56575e-06
-1.57413e-06
-1.56587e-06
-1.56496e-06
-1.55633e-06
-1.57325e-06
-1.56217e-06
-1.5298e-06
-1.53053e-06
-1.52603e-06
-1.51904e-06
-1.51678e-06
-1.51461e-06
-1.51881e-06
-1.53356e-06
-1.53177e-06
-1.52602e-06
-1.50552e-06
-1.51935e-06
-1.51935e-06
-1.51935e-06
-1.51935e-06
-1.53077e-06
-1.53157e-06
-1.51902e-06
-1.51935e-06
-1.51935e-06
-1.51935e-06
-1.51935e-06
-1.51935e-06
-1.51935e-06
-1.54823e-06
-1.54246e-06
-1.52985e-06
-1.51678e-06
-1.51935e-06
-1.51935e-06
-1.51936e-06
-1.51935e-06
-1.51935e-06
-1.51935e-06
-1.5552e-06
-1.54155e-06
-1.53054e-06
-1.51461e-06
-1.51935e-06
-1.51935e-06
-1.51935e-06
-1.51935e-06
-1.51935e-06
-1.51935e-06
-1.55564e-06
-1.53293e-06
-1.51881e-06
-1.51935e-06
-1.51935e-06
-1.51935e-06
-1.51935e-06
-1.51935e-06
-1.51935e-06
-1.55325e-06
-1.54984e-06
-1.53356e-06
-1.53078e-06
-1.51935e-06
-1.51935e-06
-1.51936e-06
-1.51935e-06
-1.56595e-06
-1.54231e-06
-1.53875e-06
-1.53178e-06
-1.53156e-06
-1.54823e-06
-1.5552e-06
-1.55564e-06
-1.55327e-06
-1.54234e-06
-1.55072e-06
-1.54246e-06
-1.54155e-06
-1.53293e-06
-1.54984e-06
-1.53876e-06
-1.5064e-06
-1.50712e-06
-1.50262e-06
-1.49563e-06
-1.49337e-06
-1.4912e-06
-1.49541e-06
-1.51015e-06
-1.50837e-06
-1.50261e-06
-1.48211e-06
-1.49595e-06
-1.49595e-06
-1.49595e-06
-1.49595e-06
-1.50737e-06
-1.50816e-06
-1.49562e-06
-1.49595e-06
-1.49595e-06
-1.49595e-06
-1.49595e-06
-1.49595e-06
-1.49595e-06
-1.52482e-06
-1.51905e-06
-1.50644e-06
-1.49337e-06
-1.49595e-06
-1.49595e-06
-1.49595e-06
-1.49595e-06
-1.49595e-06
-1.49595e-06
-1.53179e-06
-1.51814e-06
-1.50713e-06
-1.49121e-06
-1.49595e-06
-1.49595e-06
-1.49595e-06
-1.49595e-06
-1.49595e-06
-1.49595e-06
-1.53223e-06
-1.50952e-06
-1.4954e-06
-1.49595e-06
-1.49595e-06
-1.49595e-06
-1.49595e-06
-1.49595e-06
-1.49595e-06
-1.52984e-06
-1.52643e-06
-1.51015e-06
-1.50737e-06
-1.49595e-06
-1.49595e-06
-1.49595e-06
-1.49595e-06
-1.54254e-06
-1.5189e-06
-1.51535e-06
-1.50838e-06
-1.50816e-06
-1.52482e-06
-1.53179e-06
-1.53223e-06
-1.52986e-06
-1.51893e-06
-1.52732e-06
-1.51906e-06
-1.51814e-06
-1.50952e-06
-1.52643e-06
-1.51535e-06
-1.48299e-06
-1.48372e-06
-1.47922e-06
-1.47222e-06
-1.46997e-06
-1.4678e-06
-1.472e-06
-1.48674e-06
-1.48496e-06
-1.47921e-06
-1.45871e-06
-1.47254e-06
-1.47254e-06
-1.47254e-06
-1.47254e-06
-1.48396e-06
-1.48475e-06
-1.47221e-06
-1.47254e-06
-1.47254e-06
-1.47254e-06
-1.47254e-06
-1.47254e-06
-1.47254e-06
-1.50141e-06
-1.49565e-06
-1.48303e-06
-1.46997e-06
-1.47254e-06
-1.47254e-06
-1.47254e-06
-1.47254e-06
-1.47254e-06
-1.47254e-06
-1.50838e-06
-1.49474e-06
-1.48372e-06
-1.4678e-06
-1.47254e-06
-1.47254e-06
-1.47254e-06
-1.47254e-06
-1.47254e-06
-1.47254e-06
-1.50882e-06
-1.48612e-06
-1.47199e-06
-1.47254e-06
-1.47254e-06
-1.47254e-06
-1.47254e-06
-1.47254e-06
-1.47254e-06
-1.50643e-06
-1.50302e-06
-1.48674e-06
-1.48397e-06
-1.47254e-06
-1.47254e-06
-1.47254e-06
-1.47254e-06
-1.51913e-06
-1.49549e-06
-1.49194e-06
-1.48497e-06
-1.48475e-06
-1.50141e-06
-1.50839e-06
-1.50883e-06
-1.50646e-06
-1.49552e-06
-1.50391e-06
-1.49565e-06
-1.49474e-06
-1.48611e-06
-1.50303e-06
-1.49195e-06
-1.45958e-06
-1.46031e-06
-1.45581e-06
-1.44882e-06
-1.44656e-06
-1.44439e-06
-1.44859e-06
-1.46334e-06
-1.46155e-06
-1.4558e-06
-1.4353e-06
-1.44913e-06
-1.44914e-06
-1.44913e-06
-1.44913e-06
-1.46056e-06
-1.46135e-06
-1.4488e-06
-1.44913e-06
-1.44913e-06
-1.44913e-06
-1.44913e-06
-1.44913e-06
-1.44913e-06
-1.478e-06