/*--------------------------------*- C++ -*----------------------------------*\
| =========                 |                                                 |
| \\      /  F ield         | OpenFOAM: The Open Source CFD Toolbox           |
|  \\    /   O peration     | Version:  v2012                                 |
|   \\  /    A nd           | Website:  www.openfoam.com                      |
|    \\/     M anipulation  |                                                 |
\*---------------------------------------------------------------------------*/
FoamFile
{
    version     2.0;
    format      ascii;
    class       volScalarField;
    location    "0.2";
    object      p;
}
// * * * * * * * * * * * * * * * * * * * * * * * * * * * * * * * * * * * * * //

dimensions      [0 2 -2 0 0 0 0];


internalField   nonuniform List<scalar> 
189320
(
-2.71425e-07
-2.68265e-07
-2.79786e-07
-2.8041e-07
-2.85422e-07
-2.87042e-07
-2.83061e-07
-2.82046e-07
-2.83201e-07
-2.79798e-07
-2.86765e-07
-2.86642e-07
-2.88441e-07
-2.88863e-07
-2.87529e-07
-2.86567e-07
-2.82094e-07
-2.80421e-07
-2.86649e-07
-2.89405e-07
-2.90614e-07
-2.90854e-07
-2.90065e-07
-2.88071e-07
-2.86537e-07
-2.80517e-07
-2.71599e-07
-2.85428e-07
-2.88446e-07
-2.90616e-07
-2.91436e-07
-2.91571e-07
-2.91124e-07
-2.89725e-07
-2.8644e-07
-2.80111e-07
-2.68391e-07
-2.87062e-07
-2.88867e-07
-2.90852e-07
-2.91567e-07
-2.91691e-07
-2.91317e-07
-2.90119e-07
-2.86944e-07
-2.82675e-07
-2.83072e-07
-2.87527e-07
-2.90058e-07
-2.91117e-07
-2.91314e-07
-2.90689e-07
-2.89003e-07
-2.86333e-07
-2.70064e-07
-2.82049e-07
-2.86557e-07
-2.88054e-07
-2.89708e-07
-2.90108e-07
-2.88998e-07
-2.86652e-07
-2.86587e-07
-2.80685e-07
-2.83191e-07
-2.82069e-07
-2.86497e-07
-2.86405e-07
-2.86921e-07
-2.86322e-07
-2.86577e-07
-2.87533e-07
-2.80495e-07
-2.80037e-07
-2.82597e-07
-2.7003e-07
-2.80656e-07
-2.91461e-07
-2.91664e-07
-2.88979e-07
-2.88412e-07
-2.88293e-07
-2.87952e-07
-2.88505e-07
-2.92715e-07
-2.91657e-07
-2.89046e-07
-2.83503e-07
-2.92789e-07
-2.94362e-07
-2.94365e-07
-2.92837e-07
-2.93115e-07
-2.94553e-07
-2.88477e-07
-2.92757e-07
-2.97416e-07
-2.97228e-07
-2.97243e-07
-2.97431e-07
-2.92773e-07
-3.02405e-07
-2.97873e-07
-2.91489e-07
-2.88352e-07
-2.94359e-07
-2.97242e-07
-2.97004e-07
-2.97011e-07
-2.97244e-07
-2.94391e-07
-3.02827e-07
-2.98351e-07
-2.91672e-07
-2.87951e-07
-2.94368e-07
-2.97253e-07
-2.97016e-07
-2.97015e-07
-2.97244e-07
-2.94388e-07
-3.02878e-07
-2.95221e-07
-2.88467e-07
-2.92876e-07
-2.97455e-07
-2.97253e-07
-2.9726e-07
-2.97441e-07
-2.92844e-07
-3.03518e-07
-3.02057e-07
-2.92682e-07
-2.93112e-07
-2.92801e-07
-2.94377e-07
-2.94376e-07
-2.92803e-07
-3.11615e-07
-2.99902e-07
-2.95245e-07
-2.91629e-07
-2.94536e-07
-3.02368e-07
-3.02803e-07
-3.02934e-07
-3.038e-07
-3.0002e-07
-3.01991e-07
-2.97893e-07
-2.98331e-07
-2.95251e-07
-3.02131e-07
-2.95357e-07
-2.89048e-07
-2.89594e-07
-2.86649e-07
-2.85259e-07
-2.84496e-07
-2.83881e-07
-2.85377e-07
-2.90353e-07
-2.89628e-07
-2.86643e-07
-2.79771e-07
-2.89239e-07
-2.89513e-07
-2.8952e-07
-2.89248e-07
-2.90593e-07
-2.91653e-07
-2.85225e-07
-2.89241e-07
-2.91582e-07
-2.91696e-07
-2.91709e-07
-2.91587e-07
-2.89244e-07
-3.00195e-07
-2.96033e-07
-2.89065e-07
-2.84537e-07
-2.89517e-07
-2.91706e-07
-2.91715e-07
-2.91725e-07
-2.91707e-07
-2.89531e-07
-3.03501e-07
-2.9566e-07
-2.89606e-07
-2.83901e-07
-2.89513e-07
-2.9171e-07
-2.91723e-07
-2.91726e-07
-2.91708e-07
-2.89531e-07
-3.03703e-07
-2.93036e-07
-2.85396e-07
-2.89241e-07
-2.91585e-07
-2.91706e-07
-2.91718e-07
-2.91594e-07
-2.89251e-07
-3.03016e-07
-3.00236e-07
-2.90317e-07
-2.90549e-07
-2.8923e-07
-2.89527e-07
-2.89528e-07
-2.89252e-07
-3.09193e-07
-2.97684e-07
-2.93988e-07
-2.89586e-07
-2.91579e-07
-2.99953e-07
-3.03586e-07
-3.037e-07
-3.02914e-07
-2.9773e-07
-3.00316e-07
-2.95993e-07
-2.95677e-07
-2.93042e-07
-3.00232e-07
-2.94007e-07
-2.85953e-07
-2.86495e-07
-2.83628e-07
-2.82002e-07
-2.81125e-07
-2.80375e-07
-2.82163e-07
-2.87252e-07
-2.8667e-07
-2.83624e-07
-2.76169e-07
-2.85798e-07
-2.85862e-07
-2.85865e-07
-2.85803e-07
-2.87649e-07
-2.88681e-07
-2.82e-07
-2.85798e-07
-2.86644e-07
-2.86723e-07
-2.86732e-07
-2.86646e-07
-2.85798e-07
-2.97306e-07
-2.93005e-07
-2.85948e-07
-2.81122e-07
-2.85855e-07
-2.86727e-07
-2.86783e-07
-2.86789e-07
-2.86729e-07
-2.85867e-07
-3.00865e-07
-2.92615e-07
-2.8649e-07
-2.8037e-07
-2.85858e-07
-2.86732e-07
-2.8679e-07
-2.86791e-07
-2.86728e-07
-2.85864e-07
-3.01029e-07
-2.89935e-07
-2.8216e-07
-2.85796e-07
-2.86645e-07
-2.86726e-07
-2.86734e-07
-2.86646e-07
-2.85805e-07
-3.00174e-07
-2.97212e-07
-2.87249e-07
-2.87642e-07
-2.85793e-07
-2.85855e-07
-2.8586e-07
-2.858e-07
-3.06624e-07
-2.94484e-07
-2.91048e-07
-2.86661e-07
-2.88676e-07
-2.97294e-07
-3.00857e-07
-3.01029e-07
-3.00191e-07
-2.94493e-07
-2.97401e-07
-2.92994e-07
-2.92615e-07
-2.89925e-07
-2.97214e-07
-2.91046e-07
-2.82535e-07
-2.83076e-07
-2.80247e-07
-2.78542e-07
-2.77555e-07
-2.76785e-07
-2.78734e-07
-2.83853e-07
-2.83309e-07
-2.80255e-07
-2.72579e-07
-2.82258e-07
-2.82273e-07
-2.82274e-07
-2.82259e-07
-2.84294e-07
-2.85324e-07
-2.78538e-07
-2.82257e-07
-2.82562e-07
-2.82588e-07
-2.82592e-07
-2.82563e-07
-2.82261e-07
-2.93918e-07
-2.89624e-07
-2.82527e-07
-2.77548e-07
-2.82273e-07
-2.82589e-07
-2.82609e-07
-2.82613e-07
-2.8259e-07
-2.82275e-07
-2.9753e-07
-2.89205e-07
-2.83068e-07
-2.76783e-07
-2.82273e-07
-2.82588e-07
-2.82612e-07
-2.82614e-07
-2.82589e-07
-2.82275e-07
-2.9766e-07
-2.86503e-07
-2.78732e-07
-2.82257e-07
-2.82562e-07
-2.82589e-07
-2.82593e-07
-2.82564e-07
-2.82259e-07
-2.96688e-07
-2.9383e-07
-2.83851e-07
-2.84288e-07
-2.82257e-07
-2.82272e-07
-2.82273e-07
-2.82258e-07
-3.03361e-07
-2.91063e-07
-2.87696e-07
-2.83305e-07
-2.85321e-07
-2.93912e-07
-2.97524e-07
-2.97662e-07
-2.96694e-07
-2.91071e-07
-2.94057e-07
-2.89615e-07
-2.89203e-07
-2.86503e-07
-2.93824e-07
-2.8769e-07
-2.78985e-07
-2.79526e-07
-2.7672e-07
-2.74978e-07
-2.73948e-07
-2.73177e-07
-2.75187e-07
-2.80319e-07
-2.79789e-07
-2.76723e-07
-2.68968e-07
-2.78673e-07
-2.78676e-07
-2.78676e-07
-2.78675e-07
-2.80768e-07
-2.81804e-07
-2.7498e-07
-2.78677e-07
-2.78785e-07
-2.78798e-07
-2.78797e-07
-2.78786e-07
-2.78677e-07
-2.90374e-07
-2.8608e-07
-2.78985e-07
-2.73945e-07
-2.78678e-07
-2.78797e-07
-2.78803e-07
-2.78802e-07
-2.78798e-07
-2.78678e-07
-2.93997e-07
-2.85665e-07
-2.79525e-07
-2.73176e-07
-2.78675e-07
-2.78797e-07
-2.78803e-07
-2.78802e-07
-2.78796e-07
-2.78678e-07
-2.94123e-07
-2.82955e-07
-2.75185e-07
-2.78675e-07
-2.78785e-07
-2.78797e-07
-2.78797e-07
-2.78785e-07
-2.78676e-07
-2.93115e-07
-2.90295e-07
-2.80321e-07
-2.8077e-07
-2.78674e-07
-2.78676e-07
-2.78678e-07
-2.78676e-07
-2.99884e-07
-2.87528e-07
-2.8417e-07
-2.7979e-07
-2.81801e-07
-2.90372e-07
-2.93999e-07
-2.94128e-07
-2.93126e-07
-2.87539e-07
-2.90557e-07
-2.86088e-07
-2.85663e-07
-2.82957e-07
-2.90293e-07
-2.8417e-07
-2.754e-07
-2.75941e-07
-2.73145e-07
-2.71385e-07
-2.70327e-07
-2.69567e-07
-2.71611e-07
-2.76739e-07
-2.76213e-07
-2.73147e-07
-2.65361e-07
-2.75084e-07
-2.75074e-07
-2.75076e-07
-2.75083e-07
-2.77193e-07
-2.78231e-07
-2.71385e-07
-2.75078e-07
-2.75119e-07
-2.75122e-07
-2.75122e-07
-2.75118e-07
-2.75076e-07
-2.86795e-07
-2.82508e-07
-2.75402e-07
-2.70326e-07
-2.75074e-07
-2.75123e-07
-2.75125e-07
-2.75124e-07
-2.75124e-07
-2.75078e-07
-2.90419e-07
-2.82082e-07
-2.7594e-07
-2.69569e-07
-2.75077e-07
-2.75124e-07
-2.75126e-07
-2.75124e-07
-2.75123e-07
-2.75078e-07
-2.90534e-07
-2.79369e-07
-2.71613e-07
-2.75078e-07
-2.75118e-07
-2.75123e-07
-2.75122e-07
-2.75117e-07
-2.75079e-07
-2.89524e-07
-2.86721e-07
-2.76742e-07
-2.77193e-07
-2.7508e-07
-2.75079e-07
-2.7508e-07
-2.7508e-07
-2.96329e-07
-2.83943e-07
-2.80599e-07
-2.76216e-07
-2.78231e-07
-2.86794e-07
-2.90421e-07
-2.90533e-07
-2.89532e-07
-2.83956e-07
-2.86991e-07
-2.82519e-07
-2.82081e-07
-2.79369e-07
-2.86725e-07
-2.80597e-07
-2.71803e-07
-2.72343e-07
-2.6955e-07
-2.67787e-07
-2.66721e-07
-2.65967e-07
-2.68021e-07
-2.73146e-07
-2.72622e-07
-2.69552e-07
-2.61755e-07
-2.71478e-07
-2.71481e-07
-2.71482e-07
-2.71478e-07
-2.73599e-07
-2.74638e-07
-2.67787e-07
-2.71481e-07
-2.71492e-07
-2.71494e-07
-2.71495e-07
-2.7149e-07
-2.7148e-07
-2.83194e-07
-2.78913e-07
-2.71805e-07
-2.66722e-07
-2.71481e-07
-2.71493e-07
-2.71496e-07
-2.71497e-07
-2.71493e-07
-2.7148e-07
-2.86818e-07
-2.78485e-07
-2.72344e-07
-2.65967e-07
-2.71481e-07
-2.71495e-07
-2.71496e-07
-2.71497e-07
-2.71493e-07
-2.71479e-07
-2.86932e-07
-2.75771e-07
-2.68019e-07
-2.71479e-07
-2.71491e-07
-2.71493e-07
-2.71494e-07
-2.71492e-07
-2.71479e-07
-2.85915e-07
-2.83128e-07
-2.73148e-07
-2.736e-07
-2.7148e-07
-2.71481e-07
-2.71481e-07
-2.71478e-07
-2.92747e-07
-2.80354e-07
-2.77007e-07
-2.72625e-07
-2.74639e-07
-2.83198e-07
-2.86824e-07
-2.86937e-07
-2.8593e-07
-2.80367e-07
-2.83398e-07
-2.78924e-07
-2.78487e-07
-2.7577e-07
-2.83132e-07
-2.77011e-07
-2.68206e-07
-2.68745e-07
-2.65952e-07
-2.64189e-07
-2.6312e-07
-2.62364e-07
-2.6442e-07
-2.69548e-07
-2.69025e-07
-2.65955e-07
-2.5815e-07
-2.67878e-07
-2.67878e-07
-2.67877e-07
-2.67876e-07
-2.70002e-07
-2.71042e-07
-2.64187e-07
-2.67875e-07
-2.67885e-07
-2.67887e-07
-2.67886e-07
-2.67885e-07
-2.67881e-07
-2.796e-07
-2.75317e-07
-2.68207e-07
-2.6312e-07
-2.67878e-07
-2.67888e-07
-2.67887e-07
-2.67887e-07
-2.67885e-07
-2.67881e-07
-2.83225e-07
-2.74888e-07
-2.68746e-07
-2.62363e-07
-2.67878e-07
-2.67884e-07
-2.67884e-07
-2.67886e-07
-2.67885e-07
-2.6788e-07
-2.83335e-07
-2.72175e-07
-2.64421e-07
-2.6788e-07
-2.67889e-07
-2.6789e-07
-2.67888e-07
-2.67886e-07
-2.67877e-07
-2.82317e-07
-2.79529e-07
-2.69549e-07
-2.70004e-07
-2.67874e-07
-2.67875e-07
-2.67877e-07
-2.67875e-07
-2.89148e-07
-2.76756e-07
-2.73408e-07
-2.69027e-07
-2.71043e-07
-2.79601e-07
-2.83227e-07
-2.83339e-07
-2.82332e-07
-2.76768e-07
-2.79804e-07
-2.75325e-07
-2.74888e-07
-2.72173e-07
-2.79532e-07
-2.7341e-07
-2.64606e-07
-2.65146e-07
-2.62353e-07
-2.60586e-07
-2.59517e-07
-2.58761e-07
-2.60823e-07
-2.6595e-07
-2.65427e-07
-2.62356e-07
-2.54549e-07
-2.64277e-07
-2.64277e-07
-2.64278e-07
-2.64278e-07
-2.66405e-07
-2.67444e-07
-2.60585e-07
-2.64278e-07
-2.64281e-07
-2.64282e-07
-2.64281e-07
-2.6428e-07
-2.64278e-07
-2.76e-07
-2.71718e-07
-2.64607e-07
-2.59517e-07
-2.64277e-07
-2.64279e-07
-2.64281e-07
-2.64279e-07
-2.64281e-07
-2.64277e-07
-2.79625e-07
-2.71289e-07
-2.65146e-07
-2.58761e-07
-2.64278e-07
-2.64282e-07
-2.64282e-07
-2.6428e-07
-2.64284e-07
-2.64278e-07
-2.79735e-07
-2.68575e-07
-2.60822e-07
-2.64275e-07
-2.6428e-07
-2.6428e-07
-2.6428e-07
-2.6428e-07
-2.64276e-07
-2.78717e-07
-2.75931e-07
-2.6595e-07
-2.66409e-07
-2.64278e-07
-2.64278e-07
-2.64278e-07
-2.64278e-07
-2.8555e-07
-2.73158e-07
-2.69811e-07
-2.65429e-07
-2.67445e-07
-2.76002e-07
-2.79632e-07
-2.7974e-07
-2.78733e-07
-2.73171e-07
-2.76206e-07
-2.71727e-07
-2.7129e-07
-2.68574e-07
-2.75936e-07
-2.69814e-07
-2.61005e-07
-2.61545e-07
-2.58751e-07
-2.56984e-07
-2.55915e-07
-2.55161e-07
-2.57223e-07
-2.62346e-07
-2.61825e-07
-2.58755e-07
-2.50951e-07
-2.60678e-07
-2.60678e-07
-2.60678e-07
-2.60678e-07
-2.62804e-07
-2.63843e-07
-2.56985e-07
-2.60678e-07
-2.60677e-07
-2.60677e-07
-2.60677e-07
-2.60677e-07
-2.60678e-07
-2.72397e-07
-2.68116e-07
-2.61006e-07
-2.55915e-07
-2.60677e-07
-2.60677e-07
-2.60678e-07
-2.60678e-07
-2.60677e-07
-2.60677e-07
-2.76022e-07
-2.67687e-07
-2.61545e-07
-2.55161e-07
-2.60677e-07
-2.60677e-07
-2.60678e-07
-2.60678e-07
-2.60677e-07
-2.60677e-07
-2.76131e-07
-2.64972e-07
-2.57223e-07
-2.60677e-07
-2.60677e-07
-2.60677e-07
-2.60677e-07
-2.60676e-07
-2.60678e-07
-2.75114e-07
-2.7233e-07
-2.62349e-07
-2.62808e-07
-2.60678e-07
-2.60677e-07
-2.60677e-07
-2.60678e-07
-2.81947e-07
-2.69555e-07
-2.66209e-07
-2.61828e-07
-2.63844e-07
-2.724e-07
-2.7603e-07
-2.76138e-07
-2.7513e-07
-2.69568e-07
-2.72604e-07
-2.68126e-07
-2.67689e-07
-2.64972e-07
-2.72335e-07
-2.66212e-07
-2.57404e-07
-2.57944e-07
-2.55157e-07
-2.53382e-07
-2.52314e-07
-2.5156e-07
-2.53623e-07
-2.58746e-07
-2.58227e-07
-2.55154e-07
-2.47349e-07
-2.57076e-07
-2.57076e-07
-2.57076e-07
-2.57076e-07
-2.59204e-07
-2.60243e-07
-2.53384e-07
-2.57076e-07
-2.57076e-07
-2.57076e-07
-2.57076e-07
-2.57076e-07
-2.57076e-07
-2.68797e-07
-2.64516e-07
-2.57405e-07
-2.52313e-07
-2.57076e-07
-2.57076e-07
-2.57076e-07
-2.57076e-07
-2.57076e-07
-2.57076e-07
-2.72419e-07
-2.64086e-07
-2.57943e-07
-2.51558e-07
-2.57076e-07
-2.57076e-07
-2.57076e-07
-2.57076e-07
-2.57076e-07
-2.57076e-07
-2.72529e-07
-2.6137e-07
-2.53622e-07
-2.57076e-07
-2.57076e-07
-2.57076e-07
-2.57076e-07
-2.57076e-07
-2.57076e-07
-2.71514e-07
-2.68729e-07
-2.58748e-07
-2.59208e-07
-2.57076e-07
-2.57076e-07
-2.57076e-07
-2.57076e-07
-2.78347e-07
-2.65955e-07
-2.62608e-07
-2.58227e-07
-2.60243e-07
-2.68799e-07
-2.72428e-07
-2.72536e-07
-2.7153e-07
-2.65968e-07
-2.69004e-07
-2.64525e-07
-2.64087e-07
-2.61371e-07
-2.68733e-07
-2.62611e-07
-2.53802e-07
-2.54342e-07
-2.51552e-07
-2.49781e-07
-2.48712e-07
-2.47958e-07
-2.50022e-07
-2.55146e-07
-2.54626e-07
-2.51552e-07
-2.43745e-07
-2.53475e-07
-2.53474e-07
-2.53474e-07
-2.53475e-07
-2.55604e-07
-2.56642e-07
-2.49783e-07
-2.53475e-07
-2.53475e-07
-2.53475e-07
-2.53475e-07
-2.53475e-07
-2.53475e-07
-2.65196e-07
-2.60915e-07
-2.53804e-07
-2.48712e-07
-2.53475e-07
-2.53475e-07
-2.53475e-07
-2.53475e-07
-2.53475e-07
-2.53475e-07
-2.68819e-07
-2.60485e-07
-2.54342e-07
-2.47956e-07
-2.53474e-07
-2.53475e-07
-2.53475e-07
-2.53476e-07
-2.53475e-07
-2.53474e-07
-2.68929e-07
-2.57769e-07
-2.50021e-07
-2.53475e-07
-2.53475e-07
-2.53474e-07
-2.53474e-07
-2.53475e-07
-2.53475e-07
-2.67913e-07
-2.65128e-07
-2.55147e-07
-2.55606e-07
-2.53474e-07
-2.53474e-07
-2.53474e-07
-2.53475e-07
-2.74747e-07
-2.62355e-07
-2.59007e-07
-2.54626e-07
-2.56642e-07
-2.65199e-07
-2.68828e-07
-2.68938e-07
-2.67929e-07
-2.62367e-07
-2.65403e-07
-2.60924e-07
-2.60486e-07
-2.5777e-07
-2.65133e-07
-2.5901e-07
-2.50202e-07
-2.50742e-07
-2.47954e-07
-2.4618e-07
-2.45112e-07
-2.44358e-07
-2.46421e-07
-2.51546e-07
-2.51025e-07
-2.47952e-07
-2.40145e-07
-2.49874e-07
-2.49874e-07
-2.49874e-07
-2.49874e-07
-2.52003e-07
-2.53041e-07
-2.46182e-07
-2.49874e-07
-2.49874e-07
-2.49874e-07
-2.49874e-07
-2.49874e-07
-2.49874e-07
-2.61595e-07
-2.57314e-07
-2.50203e-07
-2.45111e-07
-2.49874e-07
-2.49874e-07
-2.49874e-07
-2.49874e-07
-2.49874e-07
-2.49874e-07
-2.65217e-07
-2.56884e-07
-2.50742e-07
-2.44356e-07
-2.49874e-07
-2.49874e-07
-2.49874e-07
-2.49874e-07
-2.49874e-07
-2.49874e-07
-2.65328e-07
-2.54169e-07
-2.46421e-07
-2.49874e-07
-2.49874e-07
-2.49874e-07
-2.49874e-07
-2.49874e-07
-2.49874e-07
-2.64312e-07
-2.61527e-07
-2.51547e-07
-2.52006e-07
-2.49874e-07
-2.49874e-07
-2.49874e-07
-2.49874e-07
-2.71146e-07
-2.58754e-07
-2.55407e-07
-2.51025e-07
-2.53042e-07
-2.61598e-07
-2.65227e-07
-2.65337e-07
-2.64328e-07
-2.58766e-07
-2.61802e-07
-2.57323e-07
-2.56886e-07
-2.5417e-07
-2.61532e-07
-2.5541e-07
-2.46601e-07
-2.47141e-07
-2.44353e-07
-2.4258e-07
-2.41511e-07
-2.40757e-07
-2.42821e-07
-2.47943e-07
-2.47423e-07
-2.44351e-07
-2.36544e-07
-2.46273e-07
-2.46273e-07
-2.46273e-07
-2.46273e-07
-2.48401e-07
-2.4944e-07
-2.42581e-07
-2.46274e-07
-2.46273e-07
-2.46274e-07
-2.46274e-07
-2.46274e-07
-2.46274e-07
-2.57994e-07
-2.53713e-07
-2.46602e-07
-2.41511e-07
-2.46274e-07
-2.46274e-07
-2.46274e-07
-2.46274e-07
-2.46274e-07
-2.46274e-07
-2.61617e-07
-2.53283e-07
-2.47141e-07
-2.40756e-07
-2.46274e-07
-2.46274e-07
-2.46274e-07
-2.46274e-07
-2.46274e-07
-2.46274e-07
-2.61727e-07
-2.50568e-07
-2.4282e-07
-2.46274e-07
-2.46274e-07
-2.46274e-07
-2.46274e-07
-2.46274e-07
-2.46274e-07
-2.60711e-07
-2.57927e-07
-2.47946e-07
-2.48405e-07
-2.46274e-07
-2.46274e-07
-2.46274e-07
-2.46274e-07
-2.67545e-07
-2.55153e-07
-2.51806e-07
-2.47425e-07
-2.49441e-07
-2.57997e-07
-2.61626e-07
-2.61736e-07
-2.60728e-07
-2.55166e-07
-2.58202e-07
-2.53723e-07
-2.53285e-07
-2.50569e-07
-2.57931e-07
-2.51809e-07
-2.43001e-07
-2.4354e-07
-2.40752e-07
-2.38979e-07
-2.3791e-07
-2.37157e-07
-2.39221e-07
-2.44344e-07
-2.43823e-07
-2.40751e-07
-2.32945e-07
-2.42673e-07
-2.42673e-07
-2.42673e-07
-2.42673e-07
-2.44801e-07
-2.4584e-07
-2.38981e-07
-2.42673e-07
-2.42673e-07
-2.42673e-07
-2.42673e-07
-2.42673e-07
-2.42673e-07
-2.54394e-07
-2.50113e-07
-2.43002e-07
-2.3791e-07
-2.42673e-07
-2.42673e-07
-2.42673e-07
-2.42673e-07
-2.42673e-07
-2.42673e-07
-2.58016e-07
-2.49683e-07
-2.43541e-07
-2.37155e-07
-2.42673e-07
-2.42673e-07
-2.42673e-07
-2.42673e-07
-2.42673e-07
-2.42673e-07
-2.58127e-07
-2.46968e-07
-2.3922e-07
-2.42673e-07
-2.42673e-07
-2.42673e-07
-2.42673e-07
-2.42673e-07
-2.42673e-07
-2.57111e-07
-2.54326e-07
-2.44346e-07
-2.44805e-07
-2.42673e-07
-2.42673e-07
-2.42673e-07
-2.42673e-07
-2.63945e-07
-2.51553e-07
-2.48206e-07
-2.43824e-07
-2.45841e-07
-2.54397e-07
-2.58026e-07
-2.58137e-07
-2.57128e-07
-2.51565e-07
-2.54601e-07
-2.50123e-07
-2.49686e-07
-2.46969e-07
-2.54331e-07
-2.48209e-07
-2.394e-07
-2.39939e-07
-2.37152e-07
-2.35378e-07
-2.34309e-07
-2.33556e-07
-2.3562e-07
-2.40741e-07
-2.40222e-07
-2.3715e-07
-2.29344e-07
-2.39072e-07
-2.39071e-07
-2.39071e-07
-2.39072e-07
-2.412e-07
-2.42239e-07
-2.3538e-07
-2.39072e-07
-2.39072e-07
-2.39072e-07
-2.39072e-07
-2.39072e-07
-2.39072e-07
-2.50793e-07
-2.46512e-07
-2.39401e-07
-2.34309e-07
-2.39072e-07
-2.39072e-07
-2.39072e-07
-2.39072e-07
-2.39072e-07
-2.39072e-07
-2.54415e-07
-2.46082e-07
-2.3994e-07
-2.33554e-07
-2.39072e-07
-2.39072e-07
-2.39072e-07
-2.39072e-07
-2.39072e-07
-2.39072e-07
-2.54526e-07
-2.43367e-07
-2.35619e-07
-2.39072e-07
-2.39072e-07
-2.39072e-07
-2.39072e-07
-2.39072e-07
-2.39072e-07
-2.5351e-07
-2.50725e-07
-2.40745e-07
-2.41204e-07
-2.39072e-07
-2.39072e-07
-2.39072e-07
-2.39072e-07
-2.60344e-07
-2.47952e-07
-2.44605e-07
-2.40223e-07
-2.4224e-07
-2.50796e-07
-2.54425e-07
-2.54535e-07
-2.53526e-07
-2.47964e-07
-2.51e-07
-2.46522e-07
-2.46084e-07
-2.43367e-07
-2.50731e-07
-2.44608e-07
-2.35799e-07
-2.36338e-07
-2.33551e-07
-2.31777e-07
-2.30708e-07
-2.29955e-07
-2.32019e-07
-2.3714e-07
-2.36621e-07
-2.33549e-07
-2.25743e-07
-2.35471e-07
-2.35471e-07
-2.35471e-07
-2.35471e-07
-2.37599e-07
-2.38637e-07
-2.31779e-07
-2.35471e-07
-2.35471e-07
-2.35471e-07
-2.35471e-07
-2.35471e-07
-2.35471e-07
-2.47193e-07
-2.4291e-07
-2.358e-07
-2.30708e-07
-2.35471e-07
-2.35471e-07
-2.35471e-07
-2.35471e-07
-2.35471e-07
-2.35471e-07
-2.50814e-07
-2.42481e-07
-2.36339e-07
-2.29953e-07
-2.35471e-07
-2.35471e-07
-2.35471e-07
-2.35471e-07
-2.35471e-07
-2.35471e-07
-2.50925e-07
-2.39766e-07
-2.32018e-07
-2.35471e-07
-2.35471e-07
-2.35471e-07
-2.35471e-07
-2.35471e-07
-2.35471e-07
-2.49909e-07
-2.47124e-07
-2.37144e-07
-2.37603e-07
-2.35471e-07
-2.35471e-07
-2.35471e-07
-2.35471e-07
-2.56743e-07
-2.44351e-07
-2.41004e-07
-2.36622e-07
-2.38639e-07
-2.47195e-07
-2.50823e-07
-2.50932e-07
-2.49925e-07
-2.44363e-07
-2.47399e-07
-2.42921e-07
-2.42483e-07
-2.39766e-07
-2.4713e-07
-2.41007e-07
-2.32198e-07
-2.32737e-07
-2.29949e-07
-2.28176e-07
-2.27107e-07
-2.26354e-07
-2.28418e-07
-2.33541e-07
-2.3302e-07
-2.29948e-07
-2.22142e-07
-2.3187e-07
-2.3187e-07
-2.3187e-07
-2.3187e-07
-2.33999e-07
-2.35036e-07
-2.28178e-07
-2.3187e-07
-2.3187e-07
-2.3187e-07
-2.3187e-07
-2.3187e-07
-2.3187e-07
-2.43592e-07
-2.3931e-07
-2.32199e-07
-2.27107e-07
-2.3187e-07
-2.3187e-07
-2.3187e-07
-2.3187e-07
-2.3187e-07
-2.3187e-07
-2.47213e-07
-2.3888e-07
-2.32738e-07
-2.26352e-07
-2.3187e-07
-2.3187e-07
-2.3187e-07
-2.3187e-07
-2.3187e-07
-2.3187e-07
-2.47324e-07
-2.36165e-07
-2.28417e-07
-2.3187e-07
-2.3187e-07
-2.3187e-07
-2.3187e-07
-2.3187e-07
-2.3187e-07
-2.46308e-07
-2.43523e-07
-2.33543e-07
-2.34002e-07
-2.3187e-07
-2.3187e-07
-2.3187e-07
-2.3187e-07
-2.53142e-07
-2.4075e-07
-2.37403e-07
-2.33021e-07
-2.35038e-07
-2.43594e-07
-2.47223e-07
-2.47333e-07
-2.46324e-07
-2.40763e-07
-2.43799e-07
-2.3932e-07
-2.38882e-07
-2.36168e-07
-2.43529e-07
-2.37406e-07
-2.28597e-07
-2.29137e-07
-2.26349e-07
-2.24575e-07
-2.23506e-07
-2.22753e-07
-2.24817e-07
-2.29941e-07
-2.29419e-07
-2.26347e-07
-2.18541e-07
-2.28269e-07
-2.28269e-07
-2.28269e-07
-2.28269e-07
-2.30398e-07
-2.31435e-07
-2.24577e-07
-2.28269e-07
-2.28269e-07
-2.28269e-07
-2.28269e-07
-2.28269e-07
-2.28269e-07
-2.39991e-07
-2.35709e-07
-2.28598e-07
-2.23506e-07
-2.28269e-07
-2.28269e-07
-2.28269e-07
-2.28269e-07
-2.28269e-07
-2.28269e-07
-2.43612e-07
-2.35279e-07
-2.29137e-07
-2.22751e-07
-2.28269e-07
-2.28269e-07
-2.28269e-07
-2.28269e-07
-2.28269e-07
-2.28269e-07
-2.43723e-07
-2.32564e-07
-2.24816e-07
-2.28269e-07
-2.28269e-07
-2.28269e-07
-2.28269e-07
-2.28269e-07
-2.28269e-07
-2.42707e-07
-2.39922e-07
-2.29942e-07
-2.30401e-07
-2.28269e-07
-2.28269e-07
-2.28269e-07
-2.28269e-07
-2.49541e-07
-2.37149e-07
-2.33802e-07
-2.2942e-07
-2.31437e-07
-2.39993e-07
-2.43619e-07
-2.43729e-07
-2.42723e-07
-2.37161e-07
-2.40197e-07
-2.35719e-07
-2.35281e-07
-2.32565e-07
-2.3993e-07
-2.33805e-07
-2.24996e-07
-2.25536e-07
-2.22748e-07
-2.20974e-07
-2.19906e-07
-2.19152e-07
-2.21214e-07
-2.26341e-07
-2.25818e-07
-2.22746e-07
-2.1494e-07
-2.24669e-07
-2.24669e-07
-2.24669e-07
-2.24669e-07
-2.26796e-07
-2.27835e-07
-2.20976e-07
-2.24668e-07
-2.24668e-07
-2.24668e-07
-2.24668e-07
-2.24668e-07
-2.24669e-07
-2.36391e-07
-2.32109e-07
-2.24997e-07
-2.19906e-07
-2.24669e-07
-2.24668e-07
-2.24669e-07
-2.24669e-07
-2.24668e-07
-2.24669e-07
-2.40012e-07
-2.31678e-07
-2.25536e-07
-2.1915e-07
-2.24669e-07
-2.24668e-07
-2.24669e-07
-2.24669e-07
-2.24668e-07
-2.24669e-07
-2.40122e-07
-2.28963e-07
-2.21215e-07
-2.24669e-07
-2.24668e-07
-2.24668e-07
-2.24668e-07
-2.24668e-07
-2.24669e-07
-2.39106e-07
-2.36321e-07
-2.26341e-07
-2.268e-07
-2.24669e-07
-2.24669e-07
-2.24669e-07
-2.24669e-07
-2.4594e-07
-2.33548e-07
-2.30201e-07
-2.2582e-07
-2.27836e-07
-2.36392e-07
-2.40019e-07
-2.40129e-07
-2.39123e-07
-2.33561e-07
-2.36597e-07
-2.32118e-07
-2.3168e-07
-2.28965e-07
-2.36329e-07
-2.30204e-07
-2.21396e-07
-2.21935e-07
-2.19149e-07
-2.17375e-07
-2.16305e-07
-2.15551e-07
-2.17614e-07
-2.22742e-07
-2.22218e-07
-2.19146e-07
-2.1134e-07
-2.21068e-07
-2.21068e-07
-2.21068e-07
-2.21068e-07
-2.23195e-07
-2.24235e-07
-2.17376e-07
-2.21068e-07
-2.21068e-07
-2.21068e-07
-2.21068e-07
-2.21068e-07
-2.21068e-07
-2.32791e-07
-2.28508e-07
-2.21397e-07
-2.16305e-07
-2.21068e-07
-2.21068e-07
-2.21068e-07
-2.21068e-07
-2.21068e-07
-2.21068e-07
-2.36411e-07
-2.28078e-07
-2.21935e-07
-2.1555e-07
-2.21068e-07
-2.21068e-07
-2.21068e-07
-2.21068e-07
-2.21068e-07
-2.21068e-07
-2.36522e-07
-2.25363e-07
-2.17614e-07
-2.21068e-07
-2.21068e-07
-2.21068e-07
-2.21068e-07
-2.21068e-07
-2.21068e-07
-2.35506e-07
-2.32721e-07
-2.2274e-07
-2.232e-07
-2.21068e-07
-2.21068e-07
-2.21068e-07
-2.21068e-07
-2.4234e-07
-2.29948e-07
-2.26601e-07
-2.22219e-07
-2.24236e-07
-2.32792e-07
-2.36419e-07
-2.36529e-07
-2.35523e-07
-2.2996e-07
-2.32996e-07
-2.28518e-07
-2.2808e-07
-2.25365e-07
-2.32728e-07
-2.26601e-07
-2.17795e-07
-2.18335e-07
-2.15548e-07
-2.13775e-07
-2.12704e-07
-2.11951e-07
-2.14014e-07
-2.19141e-07
-2.18617e-07
-2.15545e-07
-2.0774e-07
-2.17467e-07
-2.17467e-07
-2.17467e-07
-2.17467e-07
-2.19594e-07
-2.20634e-07
-2.13775e-07
-2.17467e-07
-2.17467e-07
-2.17467e-07
-2.17467e-07
-2.17467e-07
-2.17467e-07
-2.2919e-07
-2.24907e-07
-2.17796e-07
-2.12705e-07
-2.17467e-07
-2.17467e-07
-2.17467e-07
-2.17467e-07
-2.17467e-07
-2.17467e-07
-2.32811e-07
-2.24477e-07
-2.18335e-07
-2.11949e-07
-2.17467e-07
-2.17467e-07
-2.17467e-07
-2.17467e-07
-2.17467e-07
-2.17467e-07
-2.32921e-07
-2.21762e-07
-2.14014e-07
-2.17467e-07
-2.17467e-07
-2.17467e-07
-2.17467e-07
-2.17467e-07
-2.17467e-07
-2.31905e-07
-2.2912e-07
-2.1914e-07
-2.19599e-07
-2.17467e-07
-2.17467e-07
-2.17467e-07
-2.17467e-07
-2.38739e-07
-2.26347e-07
-2.23e-07
-2.18618e-07
-2.20635e-07
-2.29191e-07
-2.32818e-07
-2.32928e-07
-2.31922e-07
-2.2636e-07
-2.29396e-07
-2.24917e-07
-2.24479e-07
-2.21764e-07
-2.29127e-07
-2.23001e-07
-2.14194e-07
-2.14734e-07
-2.11947e-07
-2.10174e-07
-2.09104e-07
-2.0835e-07
-2.10413e-07
-2.15541e-07
-2.15017e-07
-2.11944e-07
-2.04139e-07
-2.13867e-07
-2.13867e-07
-2.13867e-07
-2.13866e-07
-2.15993e-07
-2.17033e-07
-2.10174e-07
-2.13866e-07
-2.13867e-07
-2.13867e-07
-2.13867e-07
-2.13867e-07
-2.13867e-07
-2.25589e-07
-2.21306e-07
-2.14195e-07
-2.09104e-07
-2.13867e-07
-2.13866e-07
-2.13866e-07
-2.13866e-07
-2.13866e-07
-2.13866e-07
-2.2921e-07
-2.20876e-07
-2.14734e-07
-2.08349e-07
-2.13866e-07
-2.13866e-07
-2.13866e-07
-2.13866e-07
-2.13866e-07
-2.13866e-07
-2.2932e-07
-2.18161e-07
-2.10413e-07
-2.13867e-07
-2.13866e-07
-2.13866e-07
-2.13866e-07
-2.13866e-07
-2.13866e-07
-2.28304e-07
-2.2552e-07
-2.15539e-07
-2.15998e-07
-2.13866e-07
-2.13866e-07
-2.13866e-07
-2.13866e-07
-2.35138e-07
-2.22746e-07
-2.19399e-07
-2.15018e-07
-2.17034e-07
-2.2559e-07
-2.29217e-07
-2.29327e-07
-2.28321e-07
-2.22759e-07
-2.25795e-07
-2.21316e-07
-2.20878e-07
-2.18163e-07
-2.25525e-07
-2.194e-07
-2.10594e-07
-2.11133e-07
-2.08347e-07
-2.06573e-07
-2.05503e-07
-2.0475e-07
-2.06812e-07
-2.11939e-07
-2.11416e-07
-2.08344e-07
-2.00538e-07
-2.10266e-07
-2.10266e-07
-2.10266e-07
-2.10266e-07
-2.12392e-07
-2.13432e-07
-2.06573e-07
-2.10266e-07
-2.10266e-07
-2.10266e-07
-2.10266e-07
-2.10266e-07
-2.10266e-07
-2.21988e-07
-2.17705e-07
-2.10594e-07
-2.05503e-07
-2.10266e-07
-2.10266e-07
-2.10266e-07
-2.10266e-07
-2.10266e-07
-2.10266e-07
-2.25609e-07
-2.17276e-07
-2.11133e-07
-2.04748e-07
-2.10266e-07
-2.10266e-07
-2.10266e-07
-2.10266e-07
-2.10266e-07
-2.10266e-07
-2.25719e-07
-2.1456e-07
-2.06812e-07
-2.10266e-07
-2.10265e-07
-2.10266e-07
-2.10266e-07
-2.10266e-07
-2.10266e-07
-2.24703e-07
-2.21919e-07
-2.11938e-07
-2.12397e-07
-2.10266e-07
-2.10266e-07
-2.10266e-07
-2.10266e-07
-2.31537e-07
-2.19145e-07
-2.15798e-07
-2.11417e-07
-2.13433e-07
-2.21989e-07
-2.25616e-07
-2.25726e-07
-2.2472e-07
-2.19158e-07
-2.22194e-07
-2.17715e-07
-2.17278e-07
-2.14563e-07
-2.21925e-07
-2.15799e-07
-2.06992e-07
-2.07532e-07
-2.04746e-07
-2.02972e-07
-2.01901e-07
-2.01148e-07
-2.03212e-07
-2.08339e-07
-2.07815e-07
-2.04742e-07
-1.96937e-07
-2.06665e-07
-2.06665e-07
-2.06665e-07
-2.06665e-07
-2.08791e-07
-2.09831e-07
-2.02972e-07
-2.06665e-07
-2.06664e-07
-2.06665e-07
-2.06665e-07
-2.06665e-07
-2.06665e-07
-2.18387e-07
-2.14104e-07
-2.06994e-07
-2.01902e-07
-2.06665e-07
-2.06665e-07
-2.06665e-07
-2.06665e-07
-2.06665e-07
-2.06665e-07
-2.22008e-07
-2.13675e-07
-2.07532e-07
-2.01147e-07
-2.06665e-07
-2.06664e-07
-2.06665e-07
-2.06665e-07
-2.06665e-07
-2.06665e-07
-2.22118e-07
-2.10959e-07
-2.03211e-07
-2.06665e-07
-2.06665e-07
-2.06665e-07
-2.06665e-07
-2.06665e-07
-2.06665e-07
-2.21102e-07
-2.18318e-07
-2.08337e-07
-2.08796e-07
-2.06665e-07
-2.06665e-07
-2.06665e-07
-2.06665e-07
-2.27936e-07
-2.15544e-07
-2.12197e-07
-2.07816e-07
-2.09832e-07
-2.18388e-07
-2.22015e-07
-2.22125e-07
-2.21119e-07
-2.15557e-07
-2.18593e-07
-2.14114e-07
-2.13677e-07
-2.10961e-07
-2.18324e-07
-2.12198e-07
-2.03391e-07
-2.03931e-07
-2.01144e-07
-1.9937e-07
-1.983e-07
-1.97547e-07
-1.99611e-07
-2.04737e-07
-2.04214e-07
-2.01141e-07
-1.93336e-07
-2.03064e-07
-2.03064e-07
-2.03064e-07
-2.03064e-07
-2.0519e-07
-2.0623e-07
-1.99371e-07
-2.03064e-07
-2.03063e-07
-2.03064e-07
-2.03063e-07
-2.03064e-07
-2.03064e-07
-2.14786e-07
-2.10503e-07
-2.03392e-07
-1.98301e-07
-2.03064e-07
-2.03064e-07
-2.03064e-07
-2.03064e-07
-2.03064e-07
-2.03064e-07
-2.18407e-07
-2.10074e-07
-2.03931e-07
-1.97545e-07
-2.03063e-07
-2.03063e-07
-2.03064e-07
-2.03063e-07
-2.03064e-07
-2.03064e-07
-2.18517e-07
-2.07358e-07
-1.9961e-07
-2.03064e-07
-2.03064e-07
-2.03064e-07
-2.03064e-07
-2.03064e-07
-2.03064e-07
-2.17501e-07
-2.14717e-07
-2.04736e-07
-2.05195e-07
-2.03064e-07
-2.03064e-07
-2.03065e-07
-2.03064e-07
-2.24336e-07
-2.11943e-07
-2.08596e-07
-2.04215e-07
-2.06232e-07
-2.14788e-07
-2.18414e-07
-2.18525e-07
-2.17518e-07
-2.11956e-07
-2.14992e-07
-2.10514e-07
-2.10076e-07
-2.07361e-07
-2.14723e-07
-2.08597e-07
-1.99791e-07
-2.0033e-07
-1.97544e-07
-1.9577e-07
-1.94699e-07
-1.93947e-07
-1.9601e-07
-2.01136e-07
-2.00613e-07
-1.97541e-07
-1.89735e-07
-1.99463e-07
-1.99463e-07
-1.99463e-07
-1.99463e-07
-2.0159e-07
-2.02629e-07
-1.9577e-07
-1.99463e-07
-1.99463e-07
-1.99463e-07
-1.99463e-07
-1.99463e-07
-1.99463e-07
-2.11185e-07
-2.06902e-07
-1.99791e-07
-1.947e-07
-1.99463e-07
-1.99463e-07
-1.99463e-07
-1.99463e-07
-1.99463e-07
-1.99463e-07
-2.14806e-07
-2.06473e-07
-2.0033e-07
-1.93946e-07
-1.99463e-07
-1.99463e-07
-1.99463e-07
-1.99463e-07
-1.99463e-07
-1.99463e-07
-2.14916e-07
-2.03757e-07
-1.96009e-07
-1.99463e-07
-1.99463e-07
-1.99463e-07
-1.99463e-07
-1.99463e-07
-1.99463e-07
-2.13901e-07
-2.11116e-07
-2.01135e-07
-2.01595e-07
-1.99463e-07
-1.99463e-07
-1.99463e-07
-1.99463e-07
-2.20735e-07
-2.08343e-07
-2.04996e-07
-2.00614e-07
-2.02631e-07
-2.11189e-07
-2.14815e-07
-2.14926e-07
-2.13918e-07
-2.08355e-07
-2.11391e-07
-2.06913e-07
-2.06475e-07
-2.0376e-07
-2.11122e-07
-2.04997e-07
-1.9619e-07
-1.96729e-07
-1.93943e-07
-1.92169e-07
-1.91099e-07
-1.90346e-07
-1.9241e-07
-1.97534e-07
-1.97013e-07
-1.9394e-07
-1.86133e-07
-1.95862e-07
-1.95862e-07
-1.95862e-07
-1.95862e-07
-1.97993e-07
-1.99029e-07
-1.9217e-07
-1.95862e-07
-1.95862e-07
-1.95862e-07
-1.95862e-07
-1.95862e-07
-1.95862e-07
-2.07585e-07
-2.03302e-07
-1.96191e-07
-1.911e-07
-1.95862e-07
-1.95862e-07
-1.95862e-07
-1.95862e-07
-1.95862e-07
-1.95862e-07
-2.11205e-07
-2.02872e-07
-1.9673e-07
-1.90345e-07
-1.95862e-07
-1.95862e-07
-1.95862e-07
-1.95862e-07
-1.95862e-07
-1.95862e-07
-2.11316e-07
-2.00157e-07
-1.92409e-07
-1.95862e-07
-1.95862e-07
-1.95862e-07
-1.95862e-07
-1.95862e-07
-1.95862e-07
-2.103e-07
-2.07515e-07
-1.97535e-07
-1.97994e-07
-1.95862e-07
-1.95862e-07
-1.95862e-07
-1.95862e-07
-2.17134e-07
-2.04742e-07
-2.01395e-07
-1.97013e-07
-1.9903e-07
-2.07588e-07
-2.11214e-07
-2.11325e-07
-2.10317e-07
-2.04754e-07
-2.0779e-07
-2.03312e-07
-2.02874e-07
-2.00159e-07
-2.07521e-07
-2.01396e-07
-1.92589e-07
-1.93129e-07
-1.90342e-07
-1.88569e-07
-1.87498e-07
-1.86745e-07
-1.88809e-07
-1.93935e-07
-1.93412e-07
-1.90339e-07
-1.82533e-07
-1.92261e-07
-1.92261e-07
-1.92261e-07
-1.92261e-07
-1.94392e-07
-1.95428e-07
-1.88569e-07
-1.92261e-07
-1.92261e-07
-1.92261e-07
-1.92261e-07
-1.92261e-07
-1.92261e-07
-2.03984e-07