/*--------------------------------*- C++ -*----------------------------------*\
| =========                 |                                                 |
| \\      /  F ield         | OpenFOAM: The Open Source CFD Toolbox           |
|  \\    /   O peration     | Version:  v2012                                 |
|   \\  /    A nd           | Website:  www.openfoam.com                      |
|    \\/     M anipulation  |                                                 |
\*---------------------------------------------------------------------------*/
FoamFile
{
    version     2.0;
    format      ascii;
    class       volScalarField;
    location    "0.38";
    object      p;
}
// * * * * * * * * * * * * * * * * * * * * * * * * * * * * * * * * * * * * * //

dimensions      [0 2 -2 0 0 0 0];


internalField   nonuniform List<scalar> 
189320
(
7.90292e-07
7.89844e-07
7.83865e-07
7.83529e-07
7.82338e-07
7.81709e-07
7.83286e-07
7.84658e-07
7.81226e-07
7.8385e-07
7.81061e-07
7.82001e-07
7.81335e-07
7.81197e-07
7.81637e-07
7.81626e-07
7.82517e-07
7.83519e-07
7.81985e-07
7.80976e-07
7.80553e-07
7.8047e-07
7.80763e-07
7.81374e-07
7.81112e-07
7.85121e-07
7.90195e-07
7.82268e-07
7.81323e-07
7.8055e-07
7.80184e-07
7.80116e-07
7.80336e-07
7.80903e-07
7.81829e-07
7.84087e-07
7.89774e-07
7.8169e-07
7.81188e-07
7.80468e-07
7.80118e-07
7.80049e-07
7.80253e-07
7.80777e-07
7.81851e-07
7.82323e-07
7.83277e-07
7.81634e-07
7.80765e-07
7.8034e-07
7.80256e-07
7.80523e-07
7.81128e-07
7.81637e-07
7.92913e-07
7.84653e-07
7.81629e-07
7.81383e-07
7.80916e-07
7.80786e-07
7.81132e-07
7.81745e-07
7.81024e-07
7.84612e-07
7.81227e-07
7.82529e-07
7.81135e-07
7.81858e-07
7.81872e-07
7.81647e-07
7.8103e-07
7.80303e-07
7.85143e-07
7.84123e-07
7.82362e-07
7.92933e-07
7.84626e-07
7.71828e-07
7.71602e-07
7.72969e-07
7.70802e-07
7.70945e-07
7.70674e-07
7.70654e-07
7.71392e-07
7.71928e-07
7.7297e-07
7.71797e-07
7.65526e-07
7.65501e-07
7.65504e-07
7.65517e-07
7.67884e-07
7.68491e-07
7.70793e-07
7.6552e-07
7.64911e-07
7.65436e-07
7.65429e-07
7.64914e-07
7.65535e-07
7.6573e-07
7.68961e-07
7.71821e-07
7.70948e-07
7.655e-07
7.65425e-07
7.65636e-07
7.65633e-07
7.65433e-07
7.65498e-07
7.65351e-07
7.68625e-07
7.71598e-07
7.70677e-07
7.65504e-07
7.65427e-07
7.65634e-07
7.65632e-07
7.65437e-07
7.65504e-07
7.65379e-07
7.68328e-07
7.70655e-07
7.65515e-07
7.64912e-07
7.65432e-07
7.65424e-07
7.64916e-07
7.65528e-07
7.65385e-07
7.66533e-07
7.71396e-07
7.67895e-07
7.65536e-07
7.65502e-07
7.65502e-07
7.65524e-07
7.62378e-07
7.66843e-07
7.70193e-07
7.71929e-07
7.68493e-07
7.65734e-07
7.65351e-07
7.6538e-07
7.65384e-07
7.66828e-07
7.67231e-07
7.68967e-07
7.68632e-07
7.6833e-07
7.66534e-07
7.70188e-07
7.63686e-07
7.63259e-07
7.64713e-07
7.62974e-07
7.63267e-07
7.63288e-07
7.62618e-07
7.63113e-07
7.63473e-07
7.64712e-07
7.64817e-07
7.58094e-07
7.58041e-07
7.58039e-07
7.58095e-07
7.60815e-07
7.60427e-07
7.62973e-07
7.58092e-07
7.57578e-07
7.57676e-07
7.57666e-07
7.57587e-07
7.58097e-07
7.56661e-07
7.60753e-07
7.63683e-07
7.63265e-07
7.58039e-07
7.57665e-07
7.57729e-07
7.57724e-07
7.57674e-07
7.58041e-07
7.55619e-07
7.60782e-07
7.63258e-07
7.63287e-07
7.5804e-07
7.57665e-07
7.57725e-07
7.57724e-07
7.57675e-07
7.58042e-07
7.55756e-07
7.59866e-07
7.62614e-07
7.58093e-07
7.57581e-07
7.57674e-07
7.57665e-07
7.57587e-07
7.58097e-07
7.55836e-07
7.58462e-07
7.63114e-07
7.60816e-07
7.58097e-07
7.58042e-07
7.58041e-07
7.58097e-07
7.53097e-07
7.58124e-07
7.61456e-07
7.63474e-07
7.60429e-07
7.56662e-07
7.55624e-07
7.55757e-07
7.5584e-07
7.58125e-07
7.5854e-07
7.60744e-07
7.60781e-07
7.59867e-07
7.58466e-07
7.61449e-07
7.55475e-07
7.55035e-07
7.56499e-07
7.5492e-07
7.55268e-07
7.55335e-07
7.54522e-07
7.54924e-07
7.55246e-07
7.56501e-07
7.56894e-07
7.50168e-07
7.50148e-07
7.50148e-07
7.50168e-07
7.52613e-07
7.52204e-07
7.54918e-07
7.5017e-07
7.49978e-07
7.49978e-07
7.49975e-07
7.4998e-07
7.50171e-07
7.48476e-07
7.52551e-07
7.55478e-07
7.55271e-07
7.50152e-07
7.49976e-07
7.49974e-07
7.49972e-07
7.49977e-07
7.5015e-07
7.4706e-07
7.52506e-07
7.55038e-07
7.55339e-07
7.50151e-07
7.49975e-07
7.49972e-07
7.49972e-07
7.49977e-07
7.5015e-07
7.47107e-07
7.51588e-07
7.54526e-07
7.50171e-07
7.4998e-07
7.49978e-07
7.49975e-07
7.49981e-07
7.5017e-07
7.4732e-07
7.50188e-07
7.54922e-07
7.52616e-07
7.50172e-07
7.50152e-07
7.50151e-07
7.50171e-07
7.4456e-07
7.49747e-07
7.53172e-07
7.55243e-07
7.52204e-07
7.4848e-07
7.47062e-07
7.47106e-07
7.47316e-07
7.49743e-07
7.50284e-07
7.52555e-07
7.52503e-07
7.51591e-07
7.5019e-07
7.53176e-07
7.47429e-07
7.46988e-07
7.48468e-07
7.4692e-07
7.473e-07
7.47379e-07
7.465e-07
7.46884e-07
7.472e-07
7.48451e-07
7.48936e-07
7.42192e-07
7.42189e-07
7.42189e-07
7.42194e-07
7.44573e-07
7.44154e-07
7.46922e-07
7.42193e-07
7.42121e-07
7.42128e-07
7.42126e-07
7.42122e-07
7.42193e-07
7.40402e-07
7.44508e-07
7.47436e-07
7.47304e-07
7.42189e-07
7.42128e-07
7.42126e-07
7.42125e-07
7.42128e-07
7.42189e-07
7.38925e-07
7.44443e-07
7.46993e-07
7.4738e-07
7.42189e-07
7.42128e-07
7.42126e-07
7.42125e-07
7.42129e-07
7.42189e-07
7.38989e-07
7.43536e-07
7.46499e-07
7.42194e-07
7.42122e-07
7.42128e-07
7.42126e-07
7.42122e-07
7.42194e-07
7.39255e-07
7.42124e-07
7.46888e-07
7.44576e-07
7.42195e-07
7.4219e-07
7.4219e-07
7.42195e-07
7.36459e-07
7.41704e-07
7.45114e-07
7.47202e-07
7.44155e-07
7.40405e-07
7.38926e-07
7.38986e-07
7.39253e-07
7.41701e-07
7.42237e-07
7.44507e-07
7.44442e-07
7.43536e-07
7.42126e-07
7.45115e-07
7.39447e-07
7.39004e-07
7.40475e-07
7.38948e-07
7.39338e-07
7.39419e-07
7.38513e-07
7.38899e-07
7.39209e-07
7.40481e-07
7.40978e-07
7.34223e-07
7.34222e-07
7.34222e-07
7.34222e-07
7.36584e-07
7.36163e-07
7.38945e-07
7.34221e-07
7.34198e-07
7.34199e-07
7.34199e-07
7.34197e-07
7.34221e-07
7.32412e-07
7.36527e-07
7.39445e-07
7.39338e-07
7.34221e-07
7.34199e-07
7.342e-07
7.34201e-07
7.34199e-07
7.34221e-07
7.30914e-07
7.36449e-07
7.39004e-07
7.39419e-07
7.34223e-07
7.342e-07
7.342e-07
7.34201e-07
7.34199e-07
7.34221e-07
7.30981e-07
7.35546e-07
7.38516e-07
7.34223e-07
7.34198e-07
7.34199e-07
7.34199e-07
7.34198e-07
7.34221e-07
7.31266e-07
7.3413e-07
7.38898e-07
7.36584e-07
7.34223e-07
7.34222e-07
7.34222e-07
7.34222e-07
7.28452e-07
7.33713e-07
7.3712e-07
7.39209e-07
7.36165e-07
7.32413e-07
7.30914e-07
7.30978e-07
7.31262e-07
7.33709e-07
7.34239e-07
7.36523e-07
7.3645e-07
7.35547e-07
7.34133e-07
7.37082e-07
7.31474e-07
7.31033e-07
7.32523e-07
7.30982e-07
7.31377e-07
7.31459e-07
7.3054e-07
7.30927e-07
7.31237e-07
7.32525e-07
7.33019e-07
7.26253e-07
7.26257e-07
7.26257e-07
7.26253e-07
7.28611e-07
7.2819e-07
7.3098e-07
7.26255e-07
7.26246e-07
7.26249e-07
7.26249e-07
7.26246e-07
7.26256e-07
7.24437e-07
7.28553e-07
7.31472e-07
7.31377e-07
7.26257e-07
7.26246e-07
7.26249e-07
7.26249e-07
7.26246e-07
7.26255e-07
7.22934e-07
7.28477e-07
7.31033e-07
7.31458e-07
7.26256e-07
7.26247e-07
7.26248e-07
7.26249e-07
7.26246e-07
7.26254e-07
7.23008e-07
7.27576e-07
7.30541e-07
7.26255e-07
7.26247e-07
7.26248e-07
7.26249e-07
7.26247e-07
7.26254e-07
7.23297e-07
7.26158e-07
7.30926e-07
7.28612e-07
7.26255e-07
7.26256e-07
7.26256e-07
7.26254e-07
7.2048e-07
7.25746e-07
7.29146e-07
7.31237e-07
7.2819e-07
7.24439e-07
7.22935e-07
7.23009e-07
7.23296e-07
7.25741e-07
7.26268e-07
7.28548e-07
7.28479e-07
7.27578e-07
7.26156e-07
7.29087e-07
7.23508e-07
7.23068e-07
7.24562e-07
7.23017e-07
7.23413e-07
7.23494e-07
7.22573e-07
7.2296e-07
7.2327e-07
7.24561e-07
7.25056e-07
7.1829e-07
7.18289e-07
7.18289e-07
7.1829e-07
7.20645e-07
7.20224e-07
7.23016e-07
7.18289e-07
7.18287e-07
7.18287e-07
7.18287e-07
7.18288e-07
7.18289e-07
7.16474e-07
7.20589e-07
7.23507e-07
7.23414e-07
7.18289e-07
7.18288e-07
7.18287e-07
7.18287e-07
7.18288e-07
7.18289e-07
7.14969e-07
7.20513e-07
7.23068e-07
7.23495e-07
7.18289e-07
7.18287e-07
7.18288e-07
7.18287e-07
7.18288e-07
7.1829e-07
7.15044e-07
7.19612e-07
7.22575e-07
7.1829e-07
7.18287e-07
7.18288e-07
7.18287e-07
7.18287e-07
7.1829e-07
7.15336e-07
7.18193e-07
7.2296e-07
7.20645e-07
7.18289e-07
7.18289e-07
7.18289e-07
7.1829e-07
7.12515e-07
7.1778e-07
7.2118e-07
7.23269e-07
7.20223e-07
7.16472e-07
7.14966e-07
7.15039e-07
7.15329e-07
7.17776e-07
7.18305e-07
7.20584e-07
7.20511e-07
7.19611e-07
7.18186e-07
7.2108e-07
7.15543e-07
7.15103e-07
7.16597e-07
7.15052e-07
7.1545e-07
7.15531e-07
7.14609e-07
7.14996e-07
7.15305e-07
7.16596e-07
7.17094e-07
7.10325e-07
7.10325e-07
7.10325e-07
7.10326e-07
7.12679e-07
7.12259e-07
7.15052e-07
7.10326e-07
7.10324e-07
7.10324e-07
7.10324e-07
7.10324e-07
7.10323e-07
7.08509e-07
7.12623e-07
7.15543e-07
7.15451e-07
7.10325e-07
7.10323e-07
7.10324e-07
7.10324e-07
7.10324e-07
7.10325e-07
7.07003e-07
7.12549e-07
7.15103e-07
7.15532e-07
7.10326e-07
7.10325e-07
7.10325e-07
7.10325e-07
7.10324e-07
7.10324e-07
7.07078e-07
7.11647e-07
7.1461e-07
7.10324e-07
7.10322e-07
7.10322e-07
7.10322e-07
7.10323e-07
7.10325e-07
7.07372e-07
7.10229e-07
7.14995e-07
7.12679e-07
7.10326e-07
7.10326e-07
7.10325e-07
7.10326e-07
7.04551e-07
7.09815e-07
7.13215e-07
7.15304e-07
7.12258e-07
7.08507e-07
7.07e-07
7.07074e-07
7.07364e-07
7.09812e-07
7.1034e-07
7.12619e-07
7.12546e-07
7.11646e-07
7.10222e-07
7.13116e-07
7.07578e-07
7.07138e-07
7.08633e-07
7.07088e-07
7.07487e-07
7.07567e-07
7.06643e-07
7.07031e-07
7.0734e-07
7.08632e-07
7.0913e-07
7.02361e-07
7.02361e-07
7.0236e-07
7.0236e-07
7.04714e-07
7.04294e-07
7.07088e-07
7.02361e-07
7.02359e-07
7.02359e-07
7.0236e-07
7.02359e-07
7.0236e-07
7.00543e-07
7.04659e-07
7.07579e-07
7.07487e-07
7.02361e-07
7.02361e-07
7.02361e-07
7.02361e-07
7.0236e-07
7.02361e-07
6.99038e-07
7.04584e-07
7.07139e-07
7.07568e-07
7.02361e-07
7.0236e-07
7.0236e-07
7.02361e-07
7.02359e-07
7.02361e-07
6.99114e-07
7.03683e-07
7.06645e-07
7.02362e-07
7.0236e-07
7.02361e-07
7.02361e-07
7.0236e-07
7.02362e-07
6.99408e-07
7.02264e-07
7.07031e-07
7.04713e-07
7.02361e-07
7.02361e-07
7.02361e-07
7.02361e-07
6.96588e-07
7.01851e-07
7.0525e-07
7.07339e-07
7.04293e-07
7.00542e-07
6.99034e-07
6.9911e-07
6.994e-07
7.01847e-07
7.02375e-07
7.04655e-07
7.04582e-07
7.03682e-07
7.02257e-07
7.05151e-07
6.99618e-07
6.99175e-07
7.00654e-07
6.99131e-07
6.99525e-07
6.99604e-07
6.98679e-07
6.99068e-07
6.99376e-07
7.00668e-07
7.01163e-07
6.94396e-07
6.94396e-07
6.94396e-07
6.94396e-07
6.9675e-07
6.9633e-07
6.99124e-07
6.94396e-07
6.94397e-07
6.94397e-07
6.94397e-07
6.94397e-07
6.94396e-07
6.92581e-07
6.96696e-07
6.99614e-07
6.99523e-07
6.94397e-07
6.94397e-07
6.94397e-07
6.94397e-07
6.94397e-07
6.94397e-07
6.91075e-07
6.96621e-07
6.99175e-07
6.99604e-07
6.94397e-07
6.94397e-07
6.94397e-07
6.94397e-07
6.94397e-07
6.94397e-07
6.91152e-07
6.9572e-07
6.98681e-07
6.94396e-07
6.94397e-07
6.94397e-07
6.94397e-07
6.94397e-07
6.94396e-07
6.91445e-07
6.943e-07
6.99067e-07
6.96748e-07
6.94396e-07
6.94397e-07
6.94397e-07
6.94396e-07
6.88624e-07
6.93888e-07
6.97287e-07
6.99375e-07
6.96329e-07
6.92579e-07
6.9107e-07
6.91146e-07
6.91436e-07
6.93884e-07
6.94411e-07
6.96691e-07
6.96618e-07
6.95718e-07
6.94293e-07
6.97187e-07
6.91654e-07
6.91212e-07
6.92687e-07
6.91167e-07
6.91561e-07
6.9164e-07
6.90716e-07
6.91103e-07
6.91411e-07
6.92704e-07
6.932e-07
6.86433e-07
6.86433e-07
6.86432e-07
6.86432e-07
6.88786e-07
6.88366e-07
6.9116e-07
6.86432e-07
6.86433e-07
6.86433e-07
6.86433e-07
6.86433e-07
6.86433e-07
6.84617e-07
6.88732e-07
6.91651e-07
6.9156e-07
6.86433e-07
6.86433e-07
6.86433e-07
6.86433e-07
6.86433e-07
6.86433e-07
6.83112e-07
6.88657e-07
6.91212e-07
6.91641e-07
6.86433e-07
6.86433e-07
6.86433e-07
6.86433e-07
6.86433e-07
6.86433e-07
6.83188e-07
6.87757e-07
6.90717e-07
6.86433e-07
6.86433e-07
6.86433e-07
6.86433e-07
6.86433e-07
6.86433e-07
6.83481e-07
6.86336e-07
6.91103e-07
6.88785e-07
6.86433e-07
6.86432e-07
6.86432e-07
6.86433e-07
6.8066e-07
6.85924e-07
6.89322e-07
6.91412e-07
6.88365e-07
6.84615e-07
6.83107e-07
6.83182e-07
6.83473e-07
6.8592e-07
6.86448e-07
6.88728e-07
6.88655e-07
6.87754e-07
6.86329e-07
6.89223e-07
6.8369e-07
6.83248e-07
6.8473e-07
6.83203e-07
6.83597e-07
6.83677e-07
6.82754e-07
6.83137e-07
6.83447e-07
6.84741e-07
6.85237e-07
6.78469e-07
6.78469e-07
6.78469e-07
6.78469e-07
6.80822e-07
6.80402e-07
6.83197e-07
6.78469e-07
6.78469e-07
6.78469e-07
6.78469e-07
6.78469e-07
6.78469e-07
6.76653e-07
6.80768e-07
6.83687e-07
6.83596e-07
6.78469e-07
6.78469e-07
6.78469e-07
6.78469e-07
6.78469e-07
6.78469e-07
6.75148e-07
6.80693e-07
6.83248e-07
6.83677e-07
6.78469e-07
6.78469e-07
6.78469e-07
6.78469e-07
6.78469e-07
6.78469e-07
6.75224e-07
6.79793e-07
6.82753e-07
6.78469e-07
6.78469e-07
6.78469e-07
6.78469e-07
6.78469e-07
6.78469e-07
6.75517e-07
6.78373e-07
6.83139e-07
6.80821e-07
6.78469e-07
6.78469e-07
6.78469e-07
6.78469e-07
6.72696e-07
6.7796e-07
6.81358e-07
6.83448e-07
6.80401e-07
6.76651e-07
6.75142e-07
6.75217e-07
6.75508e-07
6.77956e-07
6.78484e-07
6.80764e-07
6.80691e-07
6.7979e-07
6.78365e-07
6.81259e-07
6.75726e-07
6.75284e-07
6.7676e-07
6.7524e-07
6.75633e-07
6.75713e-07
6.7479e-07
6.75174e-07
6.75483e-07
6.76776e-07
6.77273e-07
6.70505e-07
6.70505e-07
6.70505e-07
6.70505e-07
6.72859e-07
6.72438e-07
6.75233e-07
6.70505e-07
6.70505e-07
6.70505e-07
6.70505e-07
6.70505e-07
6.70505e-07
6.68689e-07
6.72804e-07
6.75723e-07
6.75632e-07
6.70505e-07
6.70505e-07
6.70505e-07
6.70505e-07
6.70505e-07
6.70505e-07
6.67184e-07
6.72729e-07
6.75284e-07
6.75713e-07
6.70505e-07
6.70505e-07
6.70505e-07
6.70505e-07
6.70505e-07
6.70505e-07
6.67261e-07
6.71829e-07
6.74789e-07
6.70505e-07
6.70505e-07
6.70505e-07
6.70505e-07
6.70505e-07
6.70505e-07
6.67553e-07
6.70409e-07
6.75175e-07
6.72857e-07
6.70505e-07
6.70505e-07
6.70505e-07
6.70505e-07
6.64732e-07
6.69996e-07
6.73394e-07
6.75484e-07
6.72437e-07
6.68687e-07
6.67178e-07
6.67253e-07
6.67545e-07
6.69992e-07
6.7052e-07
6.728e-07
6.72727e-07
6.71826e-07
6.70401e-07
6.73295e-07
6.67762e-07
6.6732e-07
6.68796e-07
6.67275e-07
6.67669e-07
6.67749e-07
6.66826e-07
6.67212e-07
6.67523e-07
6.68812e-07
6.69309e-07
6.62541e-07
6.62541e-07
6.62541e-07
6.62541e-07
6.64895e-07
6.64475e-07
6.67269e-07
6.62541e-07
6.62541e-07
6.62541e-07
6.62541e-07
6.62541e-07
6.62541e-07
6.60725e-07
6.64841e-07
6.67759e-07
6.67668e-07
6.62541e-07
6.62541e-07
6.62541e-07
6.62541e-07
6.62541e-07
6.62541e-07
6.5922e-07
6.64766e-07
6.6732e-07
6.67749e-07
6.62541e-07
6.62541e-07
6.62541e-07
6.62541e-07
6.62541e-07
6.62541e-07
6.59297e-07
6.63865e-07
6.66825e-07
6.62541e-07
6.62541e-07
6.62541e-07
6.62541e-07
6.62541e-07
6.62541e-07
6.59589e-07
6.62445e-07
6.67211e-07
6.64893e-07
6.62541e-07
6.62541e-07
6.62541e-07
6.62541e-07
6.56769e-07
6.62032e-07
6.6543e-07
6.67519e-07
6.64473e-07
6.60723e-07
6.59214e-07
6.5929e-07
6.59581e-07
6.62028e-07
6.62556e-07
6.64836e-07
6.64763e-07
6.63862e-07
6.62437e-07
6.65331e-07
6.59798e-07
6.59356e-07
6.60833e-07
6.59312e-07
6.59706e-07
6.59785e-07
6.58862e-07
6.59246e-07
6.59556e-07
6.60848e-07
6.61344e-07
6.54577e-07
6.54577e-07
6.54577e-07
6.54577e-07
6.56931e-07
6.5651e-07
6.59305e-07
6.54577e-07
6.54577e-07
6.54577e-07
6.54577e-07
6.54577e-07
6.54577e-07
6.52761e-07
6.56877e-07
6.59795e-07
6.59704e-07
6.54577e-07
6.54577e-07
6.54577e-07
6.54577e-07
6.54577e-07
6.54577e-07
6.51256e-07
6.56802e-07
6.59356e-07
6.59785e-07
6.54577e-07
6.54577e-07
6.54577e-07
6.54577e-07
6.54577e-07
6.54577e-07
6.51333e-07
6.55901e-07
6.58861e-07
6.54577e-07
6.54577e-07
6.54577e-07
6.54577e-07
6.54577e-07
6.54577e-07
6.51625e-07
6.54481e-07
6.59247e-07
6.56929e-07
6.54577e-07
6.54577e-07
6.54577e-07
6.54577e-07
6.48805e-07
6.54068e-07
6.57467e-07
6.59556e-07
6.56509e-07
6.52759e-07
6.5125e-07
6.51325e-07
6.51617e-07
6.54065e-07
6.54592e-07
6.56872e-07
6.56799e-07
6.55898e-07
6.54474e-07
6.57368e-07
6.51835e-07
6.51393e-07
6.52869e-07
6.51348e-07
6.51742e-07
6.51821e-07
6.50898e-07
6.51284e-07
6.51593e-07
6.52885e-07
6.53381e-07
6.46614e-07
6.46614e-07
6.46614e-07
6.46614e-07
6.48967e-07
6.48547e-07
6.51341e-07
6.46614e-07
6.46614e-07
6.46614e-07
6.46614e-07
6.46614e-07
6.46614e-07
6.44798e-07
6.48913e-07
6.51832e-07
6.51741e-07
6.46614e-07
6.46614e-07
6.46614e-07
6.46614e-07
6.46614e-07
6.46614e-07
6.43293e-07
6.48838e-07
6.51392e-07
6.51822e-07
6.46614e-07
6.46614e-07
6.46614e-07
6.46614e-07
6.46614e-07
6.46614e-07
6.43369e-07
6.47937e-07
6.50898e-07
6.46614e-07
6.46614e-07
6.46614e-07
6.46614e-07
6.46614e-07
6.46613e-07
6.43662e-07
6.46517e-07
6.51284e-07
6.48965e-07
6.46614e-07
6.46614e-07
6.46614e-07
6.46614e-07
6.40841e-07
6.46104e-07
6.49503e-07
6.51592e-07
6.48546e-07
6.44796e-07
6.43287e-07
6.43362e-07
6.43653e-07
6.46101e-07
6.46628e-07
6.48908e-07
6.48835e-07
6.47935e-07
6.4651e-07
6.49403e-07
6.43871e-07
6.43429e-07
6.44906e-07
6.43384e-07
6.43778e-07
6.43858e-07
6.42935e-07
6.4332e-07
6.43628e-07
6.44921e-07
6.45417e-07
6.3865e-07
6.3865e-07
6.3865e-07
6.3865e-07
6.41003e-07
6.40582e-07
6.43377e-07
6.3865e-07
6.3865e-07
6.3865e-07
6.3865e-07
6.3865e-07
6.38649e-07
6.36832e-07
6.40949e-07
6.43868e-07
6.43777e-07
6.3865e-07
6.3865e-07
6.3865e-07
6.3865e-07
6.3865e-07
6.38649e-07
6.35328e-07
6.40874e-07
6.43429e-07
6.43858e-07
6.3865e-07
6.3865e-07
6.3865e-07
6.3865e-07
6.3865e-07
6.38649e-07
6.35405e-07
6.39973e-07
6.42934e-07
6.3865e-07
6.3865e-07
6.3865e-07
6.3865e-07
6.3865e-07
6.38649e-07
6.35698e-07
6.38553e-07
6.4332e-07
6.41001e-07
6.3865e-07
6.3865e-07
6.3865e-07
6.3865e-07
6.32877e-07
6.3814e-07
6.41539e-07
6.43628e-07
6.40582e-07
6.36832e-07
6.35324e-07
6.354e-07
6.3569e-07
6.38137e-07
6.38664e-07
6.40944e-07
6.40872e-07
6.39971e-07
6.38546e-07
6.4144e-07
6.35907e-07
6.35464e-07
6.36941e-07
6.3542e-07
6.35814e-07
6.35893e-07
6.34968e-07
6.35334e-07
6.35676e-07
6.36957e-07
6.37453e-07
6.30686e-07
6.30686e-07
6.30686e-07
6.30685e-07
6.3304e-07
6.3262e-07
6.35413e-07
6.30686e-07
6.30686e-07
6.30686e-07
6.30686e-07
6.30686e-07
6.30685e-07
6.28869e-07
6.32985e-07
6.35904e-07
6.35813e-07
6.30686e-07
6.30686e-07
6.30686e-07
6.30686e-07
6.30686e-07
6.30685e-07
6.27364e-07
6.3291e-07
6.35464e-07
6.35894e-07
6.30686e-07
6.30686e-07
6.30686e-07
6.30685e-07
6.30685e-07
6.30685e-07
6.27441e-07
6.32009e-07
6.3497e-07
6.30686e-07
6.30686e-07
6.30686e-07
6.30686e-07
6.30686e-07
6.30685e-07
6.27733e-07
6.30589e-07
6.35356e-07
6.33037e-07
6.30685e-07
6.30686e-07
6.30686e-07
6.30685e-07
6.24913e-07
6.30176e-07
6.33575e-07
6.35664e-07
6.32617e-07
6.28867e-07
6.27359e-07
6.27434e-07
6.27725e-07
6.30172e-07
6.30699e-07
6.3298e-07
6.32907e-07
6.32006e-07
6.30582e-07
6.33484e-07
6.27943e-07
6.275e-07
6.28977e-07
6.27456e-07
6.2785e-07
6.27929e-07
6.27004e-07
6.2737e-07
6.27712e-07
6.28993e-07
6.29489e-07
6.22721e-07
6.22721e-07
6.22722e-07
6.22721e-07
6.25076e-07
6.24656e-07
6.27449e-07
6.22721e-07
6.22722e-07
6.22722e-07
6.22722e-07
6.22722e-07
6.22721e-07
6.20905e-07
6.25021e-07
6.2794e-07
6.27849e-07
6.22722e-07
6.22722e-07
6.22722e-07
6.22722e-07
6.22722e-07
6.22722e-07
6.19401e-07
6.24946e-07
6.275e-07
6.2793e-07
6.22722e-07
6.22722e-07
6.22722e-07
6.22722e-07
6.22722e-07
6.22722e-07
6.19477e-07
6.24045e-07
6.27006e-07
6.22722e-07
6.22722e-07
6.22722e-07
6.22722e-07
6.22722e-07
6.22722e-07
6.1977e-07
6.22625e-07
6.27392e-07
6.25073e-07
6.22722e-07
6.22722e-07
6.22722e-07
6.22722e-07
6.16949e-07
6.22212e-07
6.25611e-07
6.277e-07
6.24654e-07
6.20904e-07
6.19397e-07
6.19472e-07
6.19762e-07
6.22209e-07
6.22736e-07
6.25016e-07
6.24943e-07
6.24043e-07
6.22617e-07
6.25512e-07
6.19979e-07
6.19536e-07
6.21013e-07
6.19492e-07
6.19886e-07
6.19965e-07
6.19039e-07
6.19406e-07
6.19749e-07
6.21029e-07
6.21525e-07
6.14758e-07
6.14758e-07
6.14758e-07
6.14758e-07
6.17112e-07
6.16692e-07
6.19485e-07
6.14758e-07
6.14758e-07
6.14758e-07
6.14758e-07
6.14758e-07
6.14758e-07
6.12941e-07
6.17057e-07
6.19976e-07
6.19885e-07
6.14758e-07
6.14758e-07
6.14758e-07
6.14758e-07
6.14758e-07
6.14758e-07
6.11437e-07
6.16982e-07
6.19536e-07
6.19966e-07
6.14758e-07
6.14758e-07
6.14758e-07
6.14758e-07
6.14758e-07
6.14758e-07
6.11513e-07
6.16082e-07
6.19042e-07
6.14758e-07
6.14758e-07
6.14758e-07
6.14758e-07
6.14758e-07
6.14758e-07
6.11806e-07
6.14661e-07
6.19428e-07
6.17109e-07
6.14758e-07
6.14758e-07
6.14758e-07
6.14758e-07
6.08985e-07
6.14248e-07
6.17647e-07
6.19736e-07
6.1669e-07
6.1294e-07
6.11433e-07
6.11508e-07
6.11797e-07
6.14245e-07
6.14772e-07
6.17053e-07
6.1698e-07
6.16079e-07
6.14653e-07
6.17548e-07
6.12015e-07
6.11572e-07
6.13049e-07
6.11528e-07
6.11922e-07
6.12001e-07
6.11075e-07
6.11442e-07
6.11783e-07
6.13065e-07
6.13561e-07
6.06794e-07
6.06794e-07
6.06794e-07
6.06794e-07
6.09148e-07
6.08728e-07
6.11522e-07
6.06794e-07
6.06794e-07
6.06794e-07
6.06794e-07
6.06794e-07
6.06794e-07
6.04977e-07
6.09093e-07
6.12012e-07
6.11921e-07
6.06794e-07
6.06794e-07
6.06794e-07
6.06794e-07
6.06794e-07
6.06794e-07
6.03473e-07
6.09018e-07
6.11573e-07
6.12002e-07
6.06794e-07
6.06794e-07
6.06794e-07
6.06794e-07
6.06794e-07
6.06794e-07
6.03549e-07
6.08118e-07
6.11078e-07
6.06794e-07
6.06794e-07
6.06794e-07
6.06794e-07
6.06794e-07
6.06794e-07
6.03842e-07
6.06697e-07
6.11464e-07
6.09146e-07
6.06794e-07
6.06794e-07
6.06794e-07
6.06794e-07
6.01021e-07
6.06284e-07
6.09683e-07
6.11772e-07
6.08726e-07
6.04976e-07
6.03469e-07
6.03544e-07
6.03833e-07
6.06281e-07
6.06808e-07
6.09089e-07
6.09016e-07
6.08115e-07
6.06689e-07
6.09583e-07
6.04051e-07
6.03608e-07
6.05085e-07
6.03564e-07
6.03958e-07
6.04037e-07
6.03111e-07
6.03478e-07
6.03819e-07
6.05101e-07
6.05597e-07
5.9883e-07
5.9883e-07
5.9883e-07
5.9883e-07
6.01184e-07
6.00764e-07
6.03557e-07
5.9883e-07
5.9883e-07
5.9883e-07
5.9883e-07
5.9883e-07
5.98829e-07
5.97013e-07
6.01129e-07
6.04048e-07
6.03957e-07
5.9883e-07
5.9883e-07
5.9883e-07
5.9883e-07
5.9883e-07
5.9883e-07
5.95509e-07
6.01054e-07
6.03608e-07
6.04038e-07
5.9883e-07
5.9883e-07
5.9883e-07
5.9883e-07
5.9883e-07
5.9883e-07
5.95585e-07
6.00154e-07
6.03114e-07
5.9883e-07
5.9883e-07
5.9883e-07
5.9883e-07
5.9883e-07
5.9883e-07
5.95878e-07
5.98733e-07
6.035e-07
6.01181e-07
5.9883e-07
5.9883e-07
5.9883e-07
5.9883e-07
5.93057e-07
5.9832e-07
6.01719e-07
6.03808e-07
6.00762e-07
5.97012e-07
5.95505e-07
5.9558e-07
5.95869e-07
5.98317e-07
5.98844e-07
6.01124e-07
6.01052e-07
6.00151e-07
5.98725e-07
6.01619e-07
5.96087e-07
5.95645e-07
5.9712e-07
5.956e-07
5.95994e-07
5.96073e-07
5.95148e-07
5.95517e-07
5.95852e-07
5.97137e-07
5.97633e-07
5.90866e-07
5.90866e-07
5.90866e-07
5.90866e-07
5.9322e-07
5.92799e-07
5.95593e-07
5.90865e-07
5.90866e-07
5.90866e-07
5.90866e-07
5.90865e-07
5.90865e-07
5.89049e-07
5.93166e-07
5.96084e-07
5.95992e-07
5.90866e-07
5.90866e-07
5.90866e-07
5.90866e-07
5.90866e-07
5.90865e-07
5.87544e-07
5.9309e-07
5.95644e-07
5.96074e-07
5.90866e-07
5.90866e-07
5.90866e-07
5.90866e-07
5.90866e-07
5.90865e-07
5.87621e-07
5.92189e-07
5.9515e-07
5.90865e-07
5.90866e-07
5.90866e-07
5.90866e-07
5.90866e-07
5.90865e-07
5.87914e-07
5.90769e-07
5.95536e-07
5.93217e-07
5.90865e-07
5.90866e-07
5.90866e-07
5.90865e-07
5.85093e-07
5.90356e-07
5.93755e-07
5.95844e-07
5.92798e-07
5.89048e-07
5.8754e-07
5.87616e-07
5.87905e-07
5.90353e-07
5.9088e-07
5.9316e-07
5.93087e-07
5.92187e-07
5.90761e-07
5.93655e-07
5.88123e-07
5.8768e-07
5.89156e-07
5.87636e-07
5.8803e-07
5.88109e-07
5.87183e-07
5.87551e-07
5.8789e-07
5.89173e-07
5.89669e-07
5.82901e-07
5.82901e-07
5.82901e-07
5.82901e-07
5.85256e-07
5.84835e-07
5.87629e-07
5.82901e-07
5.82902e-07
5.82901e-07
5.82901e-07
5.82901e-07
5.82901e-07
5.81085e-07
5.85202e-07
5.88119e-07
5.88028e-07
5.82901e-07
5.82901e-07
5.82901e-07
5.82901e-07
5.82901e-07
5.82901e-07
5.7958e-07
5.85126e-07
5.8768e-07
5.8811e-07
5.82901e-07
5.82901e-07
5.82901e-07
5.82901e-07
5.82901e-07
5.82901e-07
5.79657e-07
5.84225e-07
5.87185e-07
5.82901e-07
5.82902e-07
5.82901e-07
5.82901e-07
5.82902e-07
5.82901e-07
5.7995e-07
5.82805e-07
5.87572e-07
5.85253e-07
5.82901e-07
5.82901e-07
5.82901e-07
5.82901e-07
5.77129e-07
5.82392e-07
5.85791e-07
5.8788e-07
5.84834e-07
5.81084e-07
5.79576e-07
5.79652e-07
5.79941e-07
5.82389e-07
5.82916e-07
5.85196e-07
5.85123e-07
5.84223e-07
5.82797e-07
5.85691e-07
5.80159e-07
5.79716e-07
5.81191e-07
5.79672e-07
5.80066e-07
5.80144e-07
5.79218e-07
5.79586e-07
5.79927e-07
5.81208e-07
5.81704e-07
5.74937e-07
5.74937e-07
5.74937e-07
5.74937e-07
5.77293e-07
5.76872e-07
5.79665e-07
5.74937e-07
5.74938e-07
5.74937e-07
5.74937e-07
5.74938e-07
5.74938e-07
5.73121e-07
5.77239e-07
5.80155e-07
5.80064e-07
5.74937e-07
5.74937e-07
5.74937e-07
5.74937e-07
5.74937e-07
5.74938e-07
5.71617e-07
5.77162e-07
5.79716e-07
5.80146e-07
5.74937e-07
5.74938e-07
5.74937e-07
5.74938e-07
5.74938e-07
5.74938e-07
5.71693e-07
5.76262e-07
5.79221e-07
5.74937e-07
5.74938e-07
5.74938e-07
5.74938e-07
5.74938e-07
5.74937e-07
5.71986e-07
5.74841e-07
5.79608e-07
5.77289e-07
5.74937e-07
5.74937e-07
5.74937e-07
5.74937e-07
5.69165e-07
5.74428e-07
5.77827e-07
5.79916e-07
5.7687e-07
5.7312e-07
5.71612e-07
5.71688e-07
5.71977e-07
5.74425e-07
5.74952e-07
5.77232e-07
5.77159e-07
5.76259e-07
5.74833e-07
5.77727e-07
5.72194e-07
5.71753e-07
5.73235e-07
5.71706e-07
5.72102e-07
5.72181e-07
5.71257e-07
5.71643e-07
5.71953e-07
5.73245e-07
5.73741e-07
5.66974e-07
5.66974e-07
5.66974e-07
5.66974e-07
5.69328e-07
5.68907e-07
5.71701e-07
5.66974e-07
5.66974e-07
5.66974e-07
5.66974e-07
5.66974e-07
5.66974e-07
5.65157e-07
5.69274e-07
5.72192e-07
5.72101e-07
5.66974e-07
5.66974e-07
5.66974e-07
5.66974e-07
5.66974e-07
5.66974e-07
5.63653e-07
5.69198e-07
5.71752e-07
5.72182e-07
5.66974e-07
5.66974e-07
5.66974e-07
5.66974e-07
5.66974e-07
5.66974e-07
5.63729e-07
5.68298e-07
5.71258e-07
5.66974e-07
5.66974e-07
5.66974e-07
5.66974e-07
5.66974e-07
5.66974e-07
5.64022e-07
5.66877e-07
5.71644e-07
5.69325e-07
5.66973e-07
5.66974e-07
5.66973e-07
5.66974e-07
5.61201e-07
5.66464e-07
5.69863e-07
5.71952e-07
5.68906e-07
5.65156e-07
5.63648e-07
5.63724e-07
5.64013e-07
5.66461e-07
5.66988e-07
5.69268e-07
5.69195e-07
5.68295e-07
5.66869e-07
5.69763e-07
5.6423e-07
5.63789e-07
5.65271e-07
5.63742e-07
5.64138e-07
5.64218e-07
5.63293e-07
5.63679e-07
5.63989e-07
5.65282e-07
5.65777e-07
5.5901e-07
5.5901e-07
5.5901e-07
5.5901e-07
5.61364e-07
5.60943e-07
5.63738e-07
5.5901e-07
5.5901e-07
5.5901e-07
5.5901e-07
5.5901e-07
5.5901e-07
5.57193e-07
5.6131e-07
5.64228e-07
5.64137e-07
5.5901e-07
5.5901e-07
5.5901e-07
5.5901e-07
5.5901e-07
5.5901e-07
5.55689e-07
5.61234e-07
5.63789e-07
5.64218e-07
5.5901e-07
5.5901e-07
5.5901e-07
5.5901e-07
5.5901e-07
5.5901e-07
5.55766e-07
5.60334e-07
5.63294e-07
5.5901e-07
5.5901e-07
5.5901e-07
5.5901e-07
5.5901e-07
5.5901e-07
5.56058e-07
5.58913e-07
5.6368e-07
5.61362e-07
5.5901e-07
5.5901e-07
5.5901e-07
5.5901e-07
5.53237e-07
5.58501e-07
5.61899e-07
5.63988e-07
5.60942e-07
5.57191e-07
5.55684e-07
5.55759e-07
5.56049e-07
5.58497e-07
5.59025e-07
5.61305e-07
5.61232e-07
5.60331e-07
5.58905e-07
5.61799e-07
5.56267e-07
5.55825e-07
5.57307e-07
5.55778e-07
5.56174e-07
5.56254e-07
5.55328e-07
5.55716e-07
5.56029e-07
5.57318e-07
5.57815e-07
5.51046e-07
5.51046e-07
5.51046e-07
5.51046e-07
5.53398e-07
5.52979e-07
5.55774e-07
5.51046e-07
5.51047e-07
5.51046e-07
5.51046e-07
5.51046e-07
5.51046e-07
5.49229e-07
5.53347e-07
5.56264e-07
5.56173e-07
5.51046e-07
5.51046e-07
5.51046e-07
5.51046e-07
5.51046e-07
5.51046e-07
5.47725e-07
5.5327e-07
5.55825e-07
5.56254e-07
5.51046e-07
5.51046e-07
5.51046e-07
5.51046e-07
5.51046e-07
5.51046e-07
5.47802e-07
5.5237e-07
5.5533e-07
5.51046e-07
5.51047e-07
5.51046e-07
5.51046e-07
5.51046e-07
5.51046e-07
5.48094e-07
5.5095e-07
5.55717e-07
5.53398e-07
5.51046e-07
5.51046e-07
5.51046e-07
5.51046e-07
5.45274e-07
5.50537e-07
5.53935e-07
5.56025e-07
5.52978e-07
5.49228e-07
5.47721e-07
5.47795e-07
5.48086e-07
5.50533e-07
5.51061e-07
5.53341e-07
5.53268e-07
5.52367e-07
5.50941e-07
5.53836e-07
5.48304e-07
5.47862e-07
5.49337e-07
5.47817e-07
5.48211e-07
5.4829e-07
5.47366e-07
5.4775e-07
5.4806e-07
5.49354e-07
5.4985e-07
5.43083e-07
5.43083e-07
5.43083e-07
5.43083e-07
5.45435e-07
5.45015e-07
5.4781e-07
5.43083e-07
5.43083e-07
5.43083e-07
5.43083e-07
5.43083e-07
5.43083e-07
5.41266e-07
5.45383e-07
5.48301e-07
5.48209e-07
5.43083e-07
5.43083e-07
5.43083e-07
5.43083e-07
5.43083e-07
5.43083e-07
5.39761e-07
5.45307e-07
5.47861e-07
5.4829e-07
5.43083e-07
5.43083e-07
5.43083e-07
5.43083e-07
5.43083e-07
5.43083e-07
5.39838e-07
5.44406e-07
5.47367e-07
5.43083e-07
5.43083e-07
5.43083e-07
5.43083e-07
5.43083e-07
5.43083e-07
5.40131e-07
5.42986e-07
5.47753e-07
5.45434e-07
5.43083e-07
5.43083e-07
5.43083e-07
5.43083e-07
5.3731e-07
5.42573e-07
5.45972e-07
5.48061e-07
5.45015e-07
5.41264e-07
5.39758e-07
5.39833e-07
5.40122e-07
5.4257e-07
5.43097e-07
5.45377e-07
5.45305e-07
5.44404e-07
5.42978e-07
5.45872e-07
5.4034e-07
5.39898e-07
5.41374e-07
5.39853e-07
5.40246e-07
5.40326e-07
5.39402e-07
5.39788e-07
5.40098e-07
5.4139e-07
5.41886e-07
5.35119e-07
5.35119e-07
5.35119e-07
5.35119e-07
5.37471e-07
5.37052e-07
5.39847e-07
5.35119e-07
5.35119e-07
5.35119e-07
5.35119e-07
5.35119e-07
5.35119e-07
5.33302e-07
5.37419e-07
5.40337e-07
5.40246e-07
5.35119e-07
5.35119e-07
5.35119e-07
5.35119e-07
5.35119e-07
5.35119e-07
5.31798e-07
5.37343e-07
5.39898e-07
5.40326e-07
5.35119e-07
5.35119e-07
5.35119e-07
5.35119e-07
5.35119e-07
5.35119e-07
5.31874e-07
5.36443e-07
5.39403e-07
5.35119e-07
5.35119e-07
5.35119e-07
5.35119e-07
5.35119e-07
5.35119e-07
5.32167e-07
5.35022e-07
5.39789e-07
5.37471e-07
5.35119e-07
5.35119e-07
5.35119e-07
5.35119e-07
5.29346e-07
5.34609e-07
5.38008e-07
5.40097e-07
5.37051e-07
5.333e-07
5.31794e-07
5.31869e-07
5.32158e-07
5.34606e-07
5.35133e-07
5.37414e-07
5.37341e-07
5.36441e-07
5.35014e-07
5.37908e-07
5.32376e-07
5.31934e-07
5.33411e-07
5.31889e-07
5.32283e-07
5.32362e-07
5.31438e-07
5.31824e-07
5.32134e-07
5.33426e-07
5.33922e-07
5.27155e-07
5.27155e-07
5.27155e-07
5.27155e-07
5.29508e-07
5.29088e-07
5.31882e-07
5.27155e-07
5.27155e-07
5.27155e-07
5.27155e-07
5.27155e-07
5.27155e-07
5.25338e-07
5.29455e-07
5.32373e-07
5.32282e-07
5.27155e-07
5.27155e-07
5.27155e-07
5.27155e-07
5.27155e-07
5.27155e-07
5.23834e-07
5.29379e-07
5.31934e-07
5.32362e-07
5.27155e-07
5.27155e-07
5.27155e-07
5.27155e-07
5.27155e-07
5.27155e-07
5.2391e-07
5.28479e-07
5.31439e-07
5.27155e-07
5.27155e-07
5.27155e-07
5.27155e-07
5.27155e-07
5.27155e-07
5.24203e-07
5.27058e-07
5.31825e-07
5.29506e-07
5.27155e-07
5.27155e-07
5.27155e-07
5.27155e-07
5.21382e-07
5.26645e-07
5.30044e-07