/*--------------------------------*- C++ -*----------------------------------*\
| =========                 |                                                 |
| \\      /  F ield         | OpenFOAM: The Open Source CFD Toolbox           |
|  \\    /   O peration     | Version:  v2012                                 |
|   \\  /    A nd           | Website:  www.openfoam.com                      |
|    \\/     M anipulation  |                                                 |
\*---------------------------------------------------------------------------*/
FoamFile
{
    version     2.0;
    format      ascii;
    class       volScalarField;
    location    "90.5";
    object      p;
}
// * * * * * * * * * * * * * * * * * * * * * * * * * * * * * * * * * * * * * //

dimensions      [0 2 -2 0 0 0 0];


internalField   nonuniform List<scalar> 
189320
(
8.71677e-07
8.71615e-07
8.70842e-07
8.71469e-07
8.71697e-07
8.71719e-07
8.71561e-07
8.71673e-07
8.71407e-07
8.70843e-07
8.71681e-07
8.71793e-07
8.7178e-07
8.71769e-07
8.71773e-07
8.71716e-07
8.71258e-07
8.7147e-07
8.71793e-07
8.71743e-07
8.71663e-07
8.71643e-07
8.71691e-07
8.71763e-07
8.71697e-07
8.7196e-07
8.71683e-07
8.71697e-07
8.7178e-07
8.71663e-07
8.7156e-07
8.71536e-07
8.71599e-07
8.71711e-07
8.71729e-07
8.71805e-07
8.71618e-07
8.7172e-07
8.7177e-07
8.71643e-07
8.71536e-07
8.71513e-07
8.71577e-07
8.71699e-07
8.71762e-07
8.71386e-07
8.71562e-07
8.71773e-07
8.71691e-07
8.71599e-07
8.71578e-07
8.71635e-07
8.71736e-07
8.71734e-07
8.71947e-07
8.71673e-07
8.71716e-07
8.71763e-07
8.71711e-07
8.71699e-07
8.71737e-07
8.7178e-07
8.71617e-07
8.71748e-07
8.71408e-07
8.71258e-07
8.71697e-07
8.7173e-07
8.71762e-07
8.71734e-07
8.71619e-07
8.71446e-07
8.71959e-07
8.71802e-07
8.71385e-07
8.71947e-07
8.71749e-07
8.61201e-07
8.61179e-07
8.61045e-07
8.60453e-07
8.60469e-07
8.60471e-07
8.60475e-07
8.61125e-07
8.61115e-07
8.61045e-07
8.60224e-07
8.59243e-07
8.59328e-07
8.59329e-07
8.59243e-07
8.60426e-07
8.6061e-07
8.60453e-07
8.59243e-07
8.59487e-07
8.59562e-07
8.59563e-07
8.59487e-07
8.59242e-07
8.60821e-07
8.61293e-07
8.61201e-07
8.6047e-07
8.59329e-07
8.59563e-07
8.5963e-07
8.5963e-07
8.59562e-07
8.59328e-07
8.60932e-07
8.61242e-07
8.61179e-07
8.6047e-07
8.59328e-07
8.59563e-07
8.5963e-07
8.5963e-07
8.59562e-07
8.59328e-07
8.6094e-07
8.60723e-07
8.60475e-07
8.59243e-07
8.59487e-07
8.59563e-07
8.59563e-07
8.59487e-07
8.59243e-07
8.60893e-07
8.61356e-07
8.61125e-07
8.60426e-07
8.59242e-07
8.59328e-07
8.59329e-07
8.59243e-07
8.60771e-07
8.6075e-07
8.61265e-07
8.61115e-07
8.6061e-07
8.60821e-07
8.60932e-07
8.60941e-07
8.60894e-07
8.60752e-07
8.61254e-07
8.61293e-07
8.61242e-07
8.60723e-07
8.61356e-07
8.61265e-07
8.52157e-07
8.52123e-07
8.51981e-07
8.51292e-07
8.51257e-07
8.51239e-07
8.51291e-07
8.52048e-07
8.5207e-07
8.51981e-07
8.50986e-07
8.49816e-07
8.49861e-07
8.49862e-07
8.49816e-07
8.51128e-07
8.5146e-07
8.51292e-07
8.49816e-07
8.49959e-07
8.50014e-07
8.50015e-07
8.49959e-07
8.49816e-07
8.51549e-07
8.52238e-07
8.52157e-07
8.51257e-07
8.49862e-07
8.50015e-07
8.50069e-07
8.5007e-07
8.50014e-07
8.49861e-07
8.51599e-07
8.52143e-07
8.52123e-07
8.51239e-07
8.49862e-07
8.50015e-07
8.50069e-07
8.5007e-07
8.50014e-07
8.49861e-07
8.51592e-07
8.51583e-07
8.51291e-07
8.49816e-07
8.49959e-07
8.50014e-07
8.50015e-07
8.49959e-07
8.49816e-07
8.51588e-07
8.52278e-07
8.52048e-07
8.51128e-07
8.49816e-07
8.49861e-07
8.49862e-07
8.49816e-07
8.51392e-07
8.51543e-07
8.52221e-07
8.5207e-07
8.5146e-07
8.51549e-07
8.51598e-07
8.51592e-07
8.51588e-07
8.51544e-07
8.5218e-07
8.52238e-07
8.52143e-07
8.51583e-07
8.52278e-07
8.52222e-07
8.42979e-07
8.42943e-07
8.42805e-07
8.42096e-07
8.42048e-07
8.42024e-07
8.4209e-07
8.4287e-07
8.42898e-07
8.42805e-07
8.41775e-07
8.40542e-07
8.40564e-07
8.40565e-07
8.40542e-07
8.41908e-07
8.42274e-07
8.42096e-07
8.40542e-07
8.40613e-07
8.40645e-07
8.40646e-07
8.40613e-07
8.40542e-07
8.42333e-07
8.43063e-07
8.4298e-07
8.42048e-07
8.40565e-07
8.40646e-07
8.40681e-07
8.40681e-07
8.40645e-07
8.40564e-07
8.42357e-07
8.42959e-07
8.42943e-07
8.42024e-07
8.40565e-07
8.40646e-07
8.40681e-07
8.40681e-07
8.40645e-07
8.40564e-07
8.42344e-07
8.42392e-07
8.4209e-07
8.40542e-07
8.40614e-07
8.40645e-07
8.40646e-07
8.40613e-07
8.40541e-07
8.42356e-07
8.43097e-07
8.4287e-07
8.41908e-07
8.40542e-07
8.40564e-07
8.40565e-07
8.40542e-07
8.4215e-07
8.42342e-07
8.43047e-07
8.42898e-07
8.42274e-07
8.42333e-07
8.42356e-07
8.42344e-07
8.42356e-07
8.42342e-07
8.43005e-07
8.43063e-07
8.42959e-07
8.42392e-07
8.43097e-07
8.43047e-07
8.3378e-07
8.33743e-07
8.33607e-07
8.32891e-07
8.32837e-07
8.32812e-07
8.32884e-07
8.33671e-07
8.33701e-07
8.33607e-07
8.32565e-07
8.31309e-07
8.3132e-07
8.3132e-07
8.31309e-07
8.32698e-07
8.33074e-07
8.32891e-07
8.31309e-07
8.31343e-07
8.31359e-07
8.31359e-07
8.31343e-07
8.31309e-07
8.33124e-07
8.33864e-07
8.3378e-07
8.32837e-07
8.3132e-07
8.31359e-07
8.31378e-07
8.31378e-07
8.31359e-07
8.3132e-07
8.33138e-07
8.33758e-07
8.33743e-07
8.32812e-07
8.3132e-07
8.31359e-07
8.31378e-07
8.31378e-07
8.31359e-07
8.3132e-07
8.33122e-07
8.33189e-07
8.32884e-07
8.31309e-07
8.31343e-07
8.31359e-07
8.31359e-07
8.31343e-07
8.31309e-07
8.3314e-07
8.33898e-07
8.33671e-07
8.32698e-07
8.31309e-07
8.3132e-07
8.3132e-07
8.31309e-07
8.32933e-07
8.33137e-07
8.3385e-07
8.33701e-07
8.33074e-07
8.33124e-07
8.33138e-07
8.33122e-07
8.3314e-07
8.33138e-07
8.33808e-07
8.33864e-07
8.33758e-07
8.33189e-07
8.33898e-07
8.3385e-07
8.24574e-07
8.24537e-07
8.24402e-07
8.23684e-07
8.23628e-07
8.23603e-07
8.23676e-07
8.24467e-07
8.24497e-07
8.24402e-07
8.23356e-07
8.22091e-07
8.22096e-07
8.22096e-07
8.22091e-07
8.2349e-07
8.23868e-07
8.23684e-07
8.22091e-07
8.22107e-07
8.22114e-07
8.22114e-07
8.22107e-07
8.22091e-07
8.23916e-07
8.2466e-07
8.24574e-07
8.23628e-07
8.22096e-07
8.22114e-07
8.22124e-07
8.22124e-07
8.22114e-07
8.22096e-07
8.23926e-07
8.24552e-07
8.24537e-07
8.23603e-07
8.22096e-07
8.22114e-07
8.22124e-07
8.22124e-07
8.22114e-07
8.22096e-07
8.23908e-07
8.23983e-07
8.23676e-07
8.22091e-07
8.22107e-07
8.22114e-07
8.22114e-07
8.22107e-07
8.22091e-07
8.23929e-07
8.24692e-07
8.24466e-07
8.2349e-07
8.22091e-07
8.22096e-07
8.22096e-07
8.22091e-07
8.23723e-07
8.23931e-07
8.24645e-07
8.24497e-07
8.23868e-07
8.23916e-07
8.23926e-07
8.23909e-07
8.23929e-07
8.23931e-07
8.24604e-07
8.2466e-07
8.24552e-07
8.23983e-07
8.24692e-07
8.24645e-07
8.15367e-07
8.1533e-07
8.15195e-07
8.14476e-07
8.14419e-07
8.14393e-07
8.14468e-07
8.15259e-07
8.1529e-07
8.15195e-07
8.14148e-07
8.12879e-07
8.12881e-07
8.12881e-07
8.12879e-07
8.14282e-07
8.14661e-07
8.14476e-07
8.12879e-07
8.12886e-07
8.12889e-07
8.12889e-07
8.12886e-07
8.12879e-07
8.14708e-07
8.15452e-07
8.15367e-07
8.14419e-07
8.12881e-07
8.12889e-07
8.12894e-07
8.12894e-07
8.12889e-07
8.12881e-07
8.14716e-07
8.15345e-07
8.1533e-07
8.14393e-07
8.12881e-07
8.12889e-07
8.12894e-07
8.12894e-07
8.12889e-07
8.12881e-07
8.14698e-07
8.14775e-07
8.14468e-07
8.12879e-07
8.12886e-07
8.12889e-07
8.12889e-07
8.12886e-07
8.12879e-07
8.1472e-07
8.15485e-07
8.15259e-07
8.14282e-07
8.12879e-07
8.12881e-07
8.12881e-07
8.12879e-07
8.14514e-07
8.14723e-07
8.15438e-07
8.1529e-07
8.14661e-07
8.14708e-07
8.14716e-07
8.14698e-07
8.1472e-07
8.14723e-07
8.15397e-07
8.15452e-07
8.15345e-07
8.14775e-07
8.15485e-07
8.15438e-07
8.06159e-07
8.06122e-07
8.05987e-07
8.05268e-07
8.0521e-07
8.05185e-07
8.05259e-07
8.06051e-07
8.06082e-07
8.05987e-07
8.04939e-07
8.03668e-07
8.0367e-07
8.0367e-07
8.03668e-07
8.05073e-07
8.05453e-07
8.05268e-07
8.03668e-07
8.03672e-07
8.03673e-07
8.03673e-07
8.03672e-07
8.03668e-07
8.05499e-07
8.06244e-07
8.06159e-07
8.0521e-07
8.0367e-07
8.03673e-07
8.03675e-07
8.03675e-07
8.03673e-07
8.0367e-07
8.05507e-07
8.06136e-07
8.06122e-07
8.05185e-07
8.0367e-07
8.03673e-07
8.03675e-07
8.03675e-07
8.03673e-07
8.0367e-07
8.05489e-07
8.05566e-07
8.05259e-07
8.03668e-07
8.03672e-07
8.03673e-07
8.03673e-07
8.03672e-07
8.03668e-07
8.0551e-07
8.06276e-07
8.06051e-07
8.05073e-07
8.03668e-07
8.03669e-07
8.0367e-07
8.03668e-07
8.05305e-07
8.05515e-07
8.0623e-07
8.06082e-07
8.05453e-07
8.05499e-07
8.05507e-07
8.05488e-07
8.0551e-07
8.05515e-07
8.06189e-07
8.06244e-07
8.06136e-07
8.05566e-07
8.06276e-07
8.0623e-07
7.9695e-07
7.96913e-07
7.96779e-07
7.96059e-07
7.96002e-07
7.95976e-07
7.96051e-07
7.96843e-07
7.96874e-07
7.96779e-07
7.9573e-07
7.94459e-07
7.9446e-07
7.9446e-07
7.94459e-07
7.95865e-07
7.96245e-07
7.96059e-07
7.94459e-07
7.94461e-07
7.94462e-07
7.94462e-07
7.94461e-07
7.94459e-07
7.96291e-07
7.97036e-07
7.9695e-07
7.96002e-07
7.9446e-07
7.94462e-07
7.94462e-07
7.94462e-07
7.94462e-07
7.9446e-07
7.96298e-07
7.96928e-07
7.96913e-07
7.95976e-07
7.9446e-07
7.94462e-07
7.94462e-07
7.94462e-07
7.94462e-07
7.9446e-07
7.9628e-07
7.96358e-07
7.96051e-07
7.94459e-07
7.94461e-07
7.94462e-07
7.94462e-07
7.94461e-07
7.94459e-07
7.96302e-07
7.97068e-07
7.96843e-07
7.95865e-07
7.94459e-07
7.9446e-07
7.9446e-07
7.94459e-07
7.96097e-07
7.96307e-07
7.97022e-07
7.96874e-07
7.96245e-07
7.96291e-07
7.96298e-07
7.9628e-07
7.96302e-07
7.96307e-07
7.96981e-07
7.97036e-07
7.96928e-07
7.96358e-07
7.97068e-07
7.97022e-07
7.87742e-07
7.87705e-07
7.8757e-07
7.86851e-07
7.86793e-07
7.86767e-07
7.86842e-07
7.87634e-07
7.87665e-07
7.8757e-07
7.86522e-07
7.8525e-07
7.8525e-07
7.8525e-07
7.8525e-07
7.86656e-07
7.87036e-07
7.86851e-07
7.8525e-07
7.85252e-07
7.85252e-07
7.85252e-07
7.85252e-07
7.8525e-07
7.87082e-07
7.87827e-07
7.87742e-07
7.86793e-07
7.8525e-07
7.85252e-07
7.85252e-07
7.85252e-07
7.85252e-07
7.8525e-07
7.87089e-07
7.87719e-07
7.87705e-07
7.86767e-07
7.8525e-07
7.85252e-07
7.85252e-07
7.85252e-07
7.85252e-07
7.8525e-07
7.87071e-07
7.87149e-07
7.86842e-07
7.8525e-07
7.85252e-07
7.85252e-07
7.85252e-07
7.85252e-07
7.8525e-07
7.87093e-07
7.8786e-07
7.87634e-07
7.86656e-07
7.8525e-07
7.8525e-07
7.8525e-07
7.8525e-07
7.86888e-07
7.87098e-07
7.87813e-07
7.87665e-07
7.87036e-07
7.87082e-07
7.87089e-07
7.87071e-07
7.87093e-07
7.87098e-07
7.87772e-07
7.87827e-07
7.87719e-07
7.87149e-07
7.8786e-07
7.87813e-07
7.78533e-07
7.78496e-07
7.78362e-07
7.77642e-07
7.77584e-07
7.77558e-07
7.77633e-07
7.78426e-07
7.78456e-07
7.78362e-07
7.77313e-07
7.76041e-07
7.76042e-07
7.76042e-07
7.76041e-07
7.77447e-07
7.77827e-07
7.77642e-07
7.76041e-07
7.76042e-07
7.76042e-07
7.76042e-07
7.76042e-07
7.76041e-07
7.77873e-07
7.78619e-07
7.78533e-07
7.77584e-07
7.76042e-07
7.76042e-07
7.76042e-07
7.76042e-07
7.76042e-07
7.76042e-07
7.7788e-07
7.78511e-07
7.78496e-07
7.77558e-07
7.76042e-07
7.76042e-07
7.76042e-07
7.76042e-07
7.76042e-07
7.76042e-07
7.77862e-07
7.7794e-07
7.77633e-07
7.76041e-07
7.76042e-07
7.76042e-07
7.76042e-07
7.76042e-07
7.76041e-07
7.77884e-07
7.78651e-07
7.78426e-07
7.77447e-07
7.76041e-07
7.76042e-07
7.76042e-07
7.76041e-07
7.77679e-07
7.77889e-07
7.78605e-07
7.78456e-07
7.77827e-07
7.77873e-07
7.7788e-07
7.77862e-07
7.77884e-07
7.7789e-07
7.78564e-07
7.78619e-07
7.78511e-07
7.7794e-07
7.78651e-07
7.78605e-07
7.69324e-07
7.69287e-07
7.69153e-07
7.68433e-07
7.68375e-07
7.6835e-07
7.68425e-07
7.69217e-07
7.69248e-07
7.69153e-07
7.68104e-07
7.66832e-07
7.66833e-07
7.66833e-07
7.66832e-07
7.68239e-07
7.68619e-07
7.68433e-07
7.66832e-07
7.66834e-07
7.66833e-07
7.66833e-07
7.66834e-07
7.66832e-07
7.68665e-07
7.6941e-07
7.69324e-07
7.68375e-07
7.66833e-07
7.66833e-07
7.66833e-07
7.66833e-07
7.66833e-07
7.66833e-07
7.68672e-07
7.69302e-07
7.69287e-07
7.6835e-07
7.66833e-07
7.66833e-07
7.66833e-07
7.66833e-07
7.66833e-07
7.66833e-07
7.68653e-07
7.68732e-07
7.68424e-07
7.66832e-07
7.66834e-07
7.66833e-07
7.66833e-07
7.66834e-07
7.66832e-07
7.68676e-07
7.69442e-07
7.69217e-07
7.68239e-07
7.66832e-07
7.66833e-07
7.66833e-07
7.66832e-07
7.6847e-07
7.68681e-07
7.69396e-07
7.69248e-07
7.68619e-07
7.68665e-07
7.68672e-07
7.68653e-07
7.68676e-07
7.68681e-07
7.69355e-07
7.6941e-07
7.69302e-07
7.68732e-07
7.69442e-07
7.69396e-07
7.60116e-07
7.60079e-07
7.59944e-07
7.59225e-07
7.59167e-07
7.59141e-07
7.59216e-07
7.60008e-07
7.60039e-07
7.59944e-07
7.58896e-07
7.57624e-07
7.57624e-07
7.57624e-07
7.57624e-07
7.5903e-07
7.5941e-07
7.59225e-07
7.57624e-07
7.57625e-07
7.57625e-07
7.57624e-07
7.57625e-07
7.57624e-07
7.59456e-07
7.60201e-07
7.60116e-07
7.59167e-07
7.57624e-07
7.57624e-07
7.57624e-07
7.57624e-07
7.57624e-07
7.57624e-07
7.59463e-07
7.60093e-07
7.60079e-07
7.59141e-07
7.57624e-07
7.57624e-07
7.57624e-07
7.57624e-07
7.57625e-07
7.57624e-07
7.59445e-07
7.59523e-07
7.59216e-07
7.57624e-07
7.57625e-07
7.57624e-07
7.57624e-07
7.57625e-07
7.57624e-07
7.59467e-07
7.60234e-07
7.60008e-07
7.5903e-07
7.57624e-07
7.57624e-07
7.57624e-07
7.57624e-07
7.59262e-07
7.59472e-07
7.60187e-07
7.60039e-07
7.5941e-07
7.59456e-07
7.59463e-07
7.59445e-07
7.59467e-07
7.59472e-07
7.60146e-07
7.60201e-07
7.60093e-07
7.59523e-07
7.60234e-07
7.60187e-07
7.50907e-07
7.5087e-07
7.50736e-07
7.50016e-07
7.49958e-07
7.49932e-07
7.50007e-07
7.508e-07
7.50831e-07
7.50736e-07
7.49687e-07
7.48415e-07
7.48415e-07
7.48415e-07
7.48415e-07
7.49822e-07
7.50202e-07
7.50016e-07
7.48415e-07
7.48416e-07
7.48416e-07
7.48416e-07
7.48416e-07
7.48415e-07
7.50247e-07
7.50993e-07
7.50907e-07
7.49958e-07
7.48415e-07
7.48416e-07
7.48416e-07
7.48416e-07
7.48416e-07
7.48415e-07
7.50255e-07
7.50885e-07
7.5087e-07
7.49932e-07
7.48415e-07
7.48416e-07
7.48416e-07
7.48416e-07
7.48416e-07
7.48415e-07
7.50236e-07
7.50315e-07
7.50007e-07
7.48415e-07
7.48416e-07
7.48416e-07
7.48416e-07
7.48416e-07
7.48415e-07
7.50258e-07
7.51025e-07
7.508e-07
7.49822e-07
7.48415e-07
7.48415e-07
7.48415e-07
7.48415e-07
7.50053e-07
7.50263e-07
7.50979e-07
7.5083e-07
7.50202e-07
7.50247e-07
7.50254e-07
7.50236e-07
7.50258e-07
7.50264e-07
7.50938e-07
7.50993e-07
7.50885e-07
7.50314e-07
7.51025e-07
7.50979e-07
7.41698e-07
7.41661e-07
7.41527e-07
7.40807e-07
7.4075e-07
7.40724e-07
7.40799e-07
7.41591e-07
7.41622e-07
7.41527e-07
7.40478e-07
7.39206e-07
7.39207e-07
7.39207e-07
7.39206e-07
7.40613e-07
7.40993e-07
7.40807e-07
7.39206e-07
7.39208e-07
7.39207e-07
7.39207e-07
7.39208e-07
7.39206e-07
7.41039e-07
7.41784e-07
7.41698e-07
7.4075e-07
7.39207e-07
7.39207e-07
7.39207e-07
7.39207e-07
7.39207e-07
7.39207e-07
7.41046e-07
7.41676e-07
7.41661e-07
7.40724e-07
7.39207e-07
7.39207e-07
7.39207e-07
7.39207e-07
7.39207e-07
7.39207e-07
7.41027e-07
7.41106e-07
7.40799e-07
7.39206e-07
7.39208e-07
7.39207e-07
7.39207e-07
7.39208e-07
7.39206e-07
7.4105e-07
7.41816e-07
7.41591e-07
7.40613e-07
7.39206e-07
7.39207e-07
7.39207e-07
7.39206e-07
7.40844e-07
7.41055e-07
7.4177e-07
7.41622e-07
7.40993e-07
7.41039e-07
7.41046e-07
7.41027e-07
7.4105e-07
7.41055e-07
7.41729e-07
7.41784e-07
7.41676e-07
7.41106e-07
7.41816e-07
7.4177e-07
7.3249e-07
7.32453e-07
7.32318e-07
7.31599e-07
7.31541e-07
7.31515e-07
7.3159e-07
7.32382e-07
7.32413e-07
7.32318e-07
7.3127e-07
7.29998e-07
7.29998e-07
7.29998e-07
7.29998e-07
7.31404e-07
7.31784e-07
7.31599e-07
7.29998e-07
7.29999e-07
7.29998e-07
7.29998e-07
7.29999e-07
7.29998e-07
7.3183e-07
7.32575e-07
7.3249e-07
7.31541e-07
7.29998e-07
7.29998e-07
7.29998e-07
7.29998e-07
7.29998e-07
7.29998e-07
7.31837e-07
7.32467e-07
7.32453e-07
7.31515e-07
7.29998e-07
7.29998e-07
7.29998e-07
7.29998e-07
7.29998e-07
7.29998e-07
7.31819e-07
7.31897e-07
7.3159e-07
7.29998e-07
7.29999e-07
7.29998e-07
7.29998e-07
7.29999e-07
7.29998e-07
7.31841e-07
7.32608e-07
7.32382e-07
7.31404e-07
7.29998e-07
7.29998e-07
7.29998e-07
7.29998e-07
7.31636e-07
7.31846e-07
7.32561e-07
7.32413e-07
7.31784e-07
7.3183e-07
7.31837e-07
7.31819e-07
7.31841e-07
7.31846e-07
7.3252e-07
7.32575e-07
7.32467e-07
7.31897e-07
7.32607e-07
7.32561e-07
7.23281e-07
7.23244e-07
7.2311e-07
7.2239e-07
7.22332e-07
7.22306e-07
7.22381e-07
7.23174e-07
7.23204e-07
7.2311e-07
7.22061e-07
7.20789e-07
7.20789e-07
7.20789e-07
7.20789e-07
7.22196e-07
7.22576e-07
7.2239e-07
7.20789e-07
7.2079e-07
7.2079e-07
7.2079e-07
7.2079e-07
7.20789e-07
7.22621e-07
7.23367e-07
7.23281e-07
7.22332e-07
7.20789e-07
7.2079e-07
7.2079e-07
7.2079e-07
7.2079e-07
7.20789e-07
7.22629e-07
7.23259e-07
7.23244e-07
7.22306e-07
7.20789e-07
7.2079e-07
7.2079e-07
7.2079e-07
7.2079e-07
7.20789e-07
7.2261e-07
7.22689e-07
7.22381e-07
7.20789e-07
7.2079e-07
7.2079e-07
7.2079e-07
7.2079e-07
7.20789e-07
7.22632e-07
7.23399e-07
7.23174e-07
7.22195e-07
7.20789e-07
7.20789e-07
7.20789e-07
7.20789e-07
7.22427e-07
7.22637e-07
7.23353e-07
7.23204e-07
7.22576e-07
7.22621e-07
7.22628e-07
7.2261e-07
7.22632e-07
7.22638e-07
7.23312e-07
7.23367e-07
7.23259e-07
7.22689e-07
7.23399e-07
7.23353e-07
7.14072e-07
7.14035e-07
7.13901e-07
7.13181e-07
7.13124e-07
7.13098e-07
7.13173e-07
7.13965e-07
7.13996e-07
7.13901e-07
7.12852e-07
7.11581e-07
7.11581e-07
7.11581e-07
7.1158e-07
7.12987e-07
7.13367e-07
7.13181e-07
7.11581e-07
7.11582e-07
7.11581e-07
7.11581e-07
7.11582e-07
7.1158e-07
7.13413e-07
7.14158e-07
7.14072e-07
7.13124e-07
7.11581e-07
7.11581e-07
7.11581e-07
7.11581e-07
7.11581e-07
7.11581e-07
7.1342e-07
7.1405e-07
7.14035e-07
7.13098e-07
7.11581e-07
7.11581e-07
7.11581e-07
7.11581e-07
7.11581e-07
7.11581e-07
7.13401e-07
7.1348e-07
7.13173e-07
7.1158e-07
7.11582e-07
7.11581e-07
7.11581e-07
7.11582e-07
7.1158e-07
7.13424e-07
7.1419e-07
7.13965e-07
7.12987e-07
7.1158e-07
7.11581e-07
7.11581e-07
7.1158e-07
7.13218e-07
7.13429e-07
7.14144e-07
7.13996e-07
7.13367e-07
7.13413e-07
7.1342e-07
7.13401e-07
7.13424e-07
7.13429e-07
7.14103e-07
7.14158e-07
7.1405e-07
7.1348e-07
7.1419e-07
7.14144e-07
7.04864e-07
7.04827e-07
7.04692e-07
7.03973e-07
7.03915e-07
7.03889e-07
7.03964e-07
7.04756e-07
7.04787e-07
7.04692e-07
7.03644e-07
7.02372e-07
7.02372e-07
7.02372e-07
7.02372e-07
7.03778e-07
7.04158e-07
7.03973e-07
7.02372e-07
7.02373e-07
7.02372e-07
7.02372e-07
7.02373e-07
7.02372e-07
7.04204e-07
7.04949e-07
7.04864e-07
7.03915e-07
7.02372e-07
7.02372e-07
7.02372e-07
7.02372e-07
7.02372e-07
7.02372e-07
7.04211e-07
7.04841e-07
7.04827e-07
7.03889e-07
7.02372e-07
7.02372e-07
7.02372e-07
7.02372e-07
7.02372e-07
7.02372e-07
7.04193e-07
7.04271e-07
7.03964e-07
7.02372e-07
7.02373e-07
7.02372e-07
7.02372e-07
7.02373e-07
7.02372e-07
7.04215e-07
7.04981e-07
7.04756e-07
7.03778e-07
7.02372e-07
7.02372e-07
7.02372e-07
7.02372e-07
7.0401e-07
7.0422e-07
7.04935e-07
7.04787e-07
7.04158e-07
7.04204e-07
7.04211e-07
7.04193e-07
7.04215e-07
7.0422e-07
7.04894e-07
7.04949e-07
7.04841e-07
7.04271e-07
7.04981e-07
7.04935e-07
6.95655e-07
6.95618e-07
6.95484e-07
6.94764e-07
6.94706e-07
6.9468e-07
6.94755e-07
6.95548e-07
6.95578e-07
6.95484e-07
6.94435e-07
6.93163e-07
6.93163e-07
6.93163e-07
6.93163e-07
6.94569e-07
6.94949e-07
6.94764e-07
6.93163e-07
6.93164e-07
6.93164e-07
6.93164e-07
6.93164e-07
6.93163e-07
6.94995e-07
6.95741e-07
6.95655e-07
6.94706e-07
6.93163e-07
6.93164e-07
6.93163e-07
6.93163e-07
6.93164e-07
6.93163e-07
6.95002e-07
6.95633e-07
6.95618e-07
6.9468e-07
6.93163e-07
6.93164e-07
6.93164e-07
6.93164e-07
6.93164e-07
6.93163e-07
6.94984e-07
6.95062e-07
6.94755e-07
6.93163e-07
6.93164e-07
6.93164e-07
6.93164e-07
6.93164e-07
6.93163e-07
6.95006e-07
6.95773e-07
6.95548e-07
6.94569e-07
6.93163e-07
6.93163e-07
6.93163e-07
6.93163e-07
6.94801e-07
6.95011e-07
6.95726e-07
6.95578e-07
6.94949e-07
6.94995e-07
6.95002e-07
6.94984e-07
6.95006e-07
6.95012e-07
6.95686e-07
6.95741e-07
6.95633e-07
6.95062e-07
6.95773e-07
6.95727e-07
6.86446e-07
6.86409e-07
6.86275e-07
6.85555e-07
6.85498e-07
6.85472e-07
6.85547e-07
6.86339e-07
6.8637e-07
6.86275e-07
6.85226e-07
6.83954e-07
6.83955e-07
6.83955e-07
6.83954e-07
6.85361e-07
6.85741e-07
6.85555e-07
6.83954e-07
6.83956e-07
6.83955e-07
6.83955e-07
6.83956e-07
6.83954e-07
6.85787e-07
6.86532e-07
6.86446e-07
6.85497e-07
6.83955e-07
6.83955e-07
6.83955e-07
6.83955e-07
6.83955e-07
6.83955e-07
6.85794e-07
6.86424e-07
6.86409e-07
6.85472e-07
6.83955e-07
6.83955e-07
6.83955e-07
6.83955e-07
6.83955e-07
6.83955e-07
6.85775e-07
6.85854e-07
6.85547e-07
6.83954e-07
6.83956e-07
6.83955e-07
6.83955e-07
6.83956e-07
6.83955e-07
6.85798e-07
6.86564e-07
6.86339e-07
6.85361e-07
6.83954e-07
6.83955e-07
6.83955e-07
6.83955e-07
6.85592e-07
6.85803e-07
6.86518e-07
6.8637e-07
6.85741e-07
6.85787e-07
6.85794e-07
6.85775e-07
6.85798e-07
6.85803e-07
6.86477e-07
6.86532e-07
6.86424e-07
6.85854e-07
6.86564e-07
6.86518e-07
6.77238e-07
6.77201e-07
6.77066e-07
6.76347e-07
6.76289e-07
6.76263e-07
6.76338e-07
6.7713e-07
6.77161e-07
6.77066e-07
6.76018e-07
6.74746e-07
6.74746e-07
6.74746e-07
6.74746e-07
6.76152e-07
6.76532e-07
6.76347e-07
6.74746e-07
6.74747e-07
6.74746e-07
6.74746e-07
6.74747e-07
6.74746e-07
6.76578e-07
6.77323e-07
6.77238e-07
6.76289e-07
6.74746e-07
6.74746e-07
6.74746e-07
6.74746e-07
6.74746e-07
6.74746e-07
6.76585e-07
6.77215e-07
6.77201e-07
6.76263e-07
6.74746e-07
6.74746e-07
6.74746e-07
6.74746e-07
6.74746e-07
6.74746e-07
6.76567e-07
6.76645e-07
6.76338e-07
6.74746e-07
6.74747e-07
6.74746e-07
6.74746e-07
6.74747e-07
6.74746e-07
6.76589e-07
6.77356e-07
6.7713e-07
6.76152e-07
6.74746e-07
6.74746e-07
6.74746e-07
6.74746e-07
6.76384e-07
6.76594e-07
6.77309e-07
6.77161e-07
6.76532e-07
6.76578e-07
6.76585e-07
6.76567e-07
6.76589e-07
6.76594e-07
6.77269e-07
6.77323e-07
6.77215e-07
6.76645e-07
6.77356e-07
6.77309e-07
6.68029e-07
6.67992e-07
6.67858e-07
6.67138e-07
6.6708e-07
6.67054e-07
6.67129e-07
6.67922e-07
6.67952e-07
6.67858e-07
6.66809e-07
6.65537e-07
6.65537e-07
6.65537e-07
6.65537e-07
6.66943e-07
6.67323e-07
6.67138e-07
6.65537e-07
6.65538e-07
6.65538e-07
6.65538e-07
6.65538e-07
6.65537e-07
6.67369e-07
6.68115e-07
6.68029e-07
6.6708e-07
6.65537e-07
6.65538e-07
6.65538e-07
6.65538e-07
6.65538e-07
6.65537e-07
6.67376e-07
6.68007e-07
6.67992e-07
6.67054e-07
6.65537e-07
6.65538e-07
6.65538e-07
6.65538e-07
6.65538e-07
6.65537e-07
6.67358e-07
6.67436e-07
6.67129e-07
6.65537e-07
6.65538e-07
6.65538e-07
6.65538e-07
6.65538e-07
6.65537e-07
6.6738e-07
6.68147e-07
6.67922e-07
6.66943e-07
6.65537e-07
6.65537e-07
6.65537e-07
6.65537e-07
6.67175e-07
6.67385e-07
6.68101e-07
6.67952e-07
6.67323e-07
6.67369e-07
6.67376e-07
6.67358e-07
6.6738e-07
6.67386e-07
6.6806e-07
6.68115e-07
6.68007e-07
6.67436e-07
6.68147e-07
6.68101e-07
6.5882e-07
6.58783e-07
6.58649e-07
6.57929e-07
6.57871e-07
6.57846e-07
6.57921e-07
6.58713e-07
6.58744e-07
6.58649e-07
6.576e-07
6.56328e-07
6.56329e-07
6.56329e-07
6.56328e-07
6.57735e-07
6.58115e-07
6.57929e-07
6.56328e-07
6.5633e-07
6.56329e-07
6.56329e-07
6.56329e-07
6.56328e-07
6.58161e-07
6.58906e-07
6.5882e-07
6.57871e-07
6.56329e-07
6.56329e-07
6.56329e-07
6.56329e-07
6.56329e-07
6.56329e-07
6.58168e-07
6.58798e-07
6.58783e-07
6.57846e-07
6.56329e-07
6.56329e-07
6.56329e-07
6.56329e-07
6.56329e-07
6.56329e-07
6.58149e-07
6.58228e-07
6.57921e-07
6.56328e-07
6.56329e-07
6.56329e-07
6.56329e-07
6.5633e-07
6.56328e-07
6.58172e-07
6.58938e-07
6.58713e-07
6.57735e-07
6.56328e-07
6.56329e-07
6.56329e-07
6.56328e-07
6.57966e-07
6.58177e-07
6.58892e-07
6.58744e-07
6.58115e-07
6.58161e-07
6.58168e-07
6.58149e-07
6.58172e-07
6.58177e-07
6.58851e-07
6.58906e-07
6.58798e-07
6.58228e-07
6.58938e-07
6.58892e-07
6.49612e-07
6.49575e-07
6.4944e-07
6.48721e-07
6.48663e-07
6.48637e-07
6.48712e-07
6.49504e-07
6.49535e-07
6.4944e-07
6.48392e-07
6.4712e-07
6.4712e-07
6.4712e-07
6.4712e-07
6.48526e-07
6.48906e-07
6.48721e-07
6.4712e-07
6.47121e-07
6.4712e-07
6.4712e-07
6.47121e-07
6.4712e-07
6.48952e-07
6.49697e-07
6.49612e-07
6.48663e-07
6.4712e-07
6.4712e-07
6.4712e-07
6.4712e-07
6.4712e-07
6.4712e-07
6.48959e-07
6.49589e-07
6.49575e-07
6.48637e-07
6.4712e-07
6.4712e-07
6.4712e-07
6.4712e-07
6.4712e-07
6.4712e-07
6.48941e-07
6.49019e-07
6.48712e-07
6.4712e-07
6.47121e-07
6.4712e-07
6.4712e-07
6.47121e-07
6.4712e-07
6.48963e-07
6.4973e-07
6.49504e-07
6.48526e-07
6.4712e-07
6.4712e-07
6.4712e-07
6.4712e-07
6.48758e-07
6.48968e-07
6.49683e-07
6.49535e-07
6.48906e-07
6.48952e-07
6.48959e-07
6.48941e-07
6.48963e-07
6.48968e-07
6.49642e-07
6.49697e-07
6.49589e-07
6.49019e-07
6.4973e-07
6.49683e-07
6.40403e-07
6.40366e-07
6.40232e-07
6.39512e-07
6.39454e-07
6.39428e-07
6.39503e-07
6.40296e-07
6.40327e-07
6.40232e-07
6.39183e-07
6.37911e-07
6.37911e-07
6.37911e-07
6.37911e-07
6.39318e-07
6.39698e-07
6.39512e-07
6.37911e-07
6.37912e-07
6.37912e-07
6.37912e-07
6.37912e-07
6.37911e-07
6.39743e-07
6.40489e-07
6.40403e-07
6.39454e-07
6.37911e-07
6.37912e-07
6.37912e-07
6.37912e-07
6.37912e-07
6.37911e-07
6.39751e-07
6.40381e-07
6.40366e-07
6.39428e-07
6.37911e-07
6.37912e-07
6.37912e-07
6.37912e-07
6.37912e-07
6.37911e-07
6.39732e-07
6.39811e-07
6.39503e-07
6.37911e-07
6.37912e-07
6.37912e-07
6.37912e-07
6.37912e-07
6.37911e-07
6.39754e-07
6.40521e-07
6.40296e-07
6.39317e-07
6.37911e-07
6.37911e-07
6.37911e-07
6.37911e-07
6.39549e-07
6.39759e-07
6.40475e-07
6.40326e-07
6.39698e-07
6.39743e-07
6.3975e-07
6.39732e-07
6.39754e-07
6.3976e-07
6.40434e-07
6.40489e-07
6.40381e-07
6.39811e-07
6.40521e-07
6.40475e-07
6.31194e-07
6.31157e-07
6.31023e-07
6.30303e-07
6.30246e-07
6.3022e-07
6.30295e-07
6.31087e-07
6.31118e-07
6.31023e-07
6.29974e-07
6.28702e-07
6.28703e-07
6.28703e-07
6.28702e-07
6.30109e-07
6.30489e-07
6.30303e-07
6.28702e-07
6.28704e-07
6.28703e-07
6.28703e-07
6.28704e-07
6.28702e-07
6.30535e-07
6.3128e-07
6.31194e-07
6.30245e-07
6.28703e-07
6.28703e-07
6.28703e-07
6.28703e-07
6.28703e-07
6.28703e-07
6.30542e-07
6.31172e-07
6.31157e-07
6.3022e-07
6.28703e-07
6.28703e-07
6.28703e-07
6.28703e-07
6.28703e-07
6.28703e-07
6.30523e-07
6.30602e-07
6.30295e-07
6.28702e-07
6.28704e-07
6.28703e-07
6.28703e-07
6.28704e-07
6.28702e-07
6.30546e-07
6.31312e-07
6.31087e-07
6.30109e-07
6.28702e-07
6.28703e-07
6.28703e-07
6.28702e-07
6.3034e-07
6.30551e-07
6.31266e-07
6.31118e-07
6.30489e-07
6.30535e-07
6.30542e-07
6.30523e-07
6.30546e-07
6.30551e-07
6.31225e-07
6.3128e-07
6.31172e-07
6.30602e-07
6.31312e-07
6.31266e-07
6.21986e-07
6.21949e-07
6.21814e-07
6.21095e-07
6.21037e-07
6.21011e-07
6.21086e-07
6.21878e-07
6.21909e-07
6.21814e-07
6.20766e-07
6.19494e-07
6.19494e-07
6.19494e-07
6.19494e-07
6.209e-07
6.2128e-07
6.21095e-07
6.19494e-07
6.19495e-07
6.19494e-07
6.19494e-07
6.19495e-07
6.19494e-07
6.21326e-07
6.22071e-07
6.21986e-07
6.21037e-07
6.19494e-07
6.19494e-07
6.19494e-07
6.19494e-07
6.19494e-07
6.19494e-07
6.21333e-07
6.21963e-07
6.21949e-07
6.21011e-07
6.19494e-07
6.19494e-07
6.19494e-07
6.19494e-07
6.19494e-07
6.19494e-07
6.21315e-07
6.21393e-07
6.21086e-07
6.19494e-07
6.19495e-07
6.19494e-07
6.19494e-07
6.19495e-07
6.19494e-07
6.21337e-07
6.22103e-07
6.21878e-07
6.209e-07
6.19494e-07
6.19494e-07
6.19494e-07
6.19494e-07
6.21132e-07
6.21342e-07
6.22057e-07
6.21909e-07
6.2128e-07
6.21326e-07
6.21333e-07
6.21315e-07
6.21337e-07
6.21342e-07
6.22016e-07
6.22071e-07
6.21963e-07
6.21393e-07
6.22103e-07
6.22057e-07
6.12777e-07
6.1274e-07
6.12606e-07
6.11886e-07
6.11828e-07
6.11802e-07
6.11877e-07
6.1267e-07
6.127e-07
6.12606e-07
6.11557e-07
6.10285e-07
6.10285e-07
6.10285e-07
6.10285e-07
6.11692e-07
6.12072e-07
6.11886e-07
6.10285e-07
6.10286e-07
6.10286e-07
6.10286e-07
6.10286e-07
6.10285e-07
6.12117e-07
6.12863e-07
6.12777e-07
6.11828e-07
6.10285e-07
6.10286e-07
6.10286e-07
6.10286e-07
6.10286e-07
6.10285e-07
6.12124e-07
6.12755e-07
6.1274e-07
6.11802e-07
6.10285e-07
6.10286e-07
6.10286e-07
6.10286e-07
6.10286e-07
6.10285e-07
6.12106e-07
6.12184e-07
6.11877e-07
6.10285e-07
6.10286e-07
6.10286e-07
6.10286e-07
6.10286e-07
6.10285e-07
6.12128e-07
6.12895e-07
6.1267e-07
6.11692e-07
6.10285e-07
6.10285e-07
6.10285e-07
6.10285e-07
6.11923e-07
6.12133e-07
6.12849e-07
6.127e-07
6.12072e-07
6.12117e-07
6.12124e-07
6.12106e-07
6.12128e-07
6.12134e-07
6.12808e-07
6.12863e-07
6.12755e-07
6.12184e-07
6.12895e-07
6.12849e-07
6.03568e-07
6.03531e-07
6.03397e-07
6.02677e-07
6.0262e-07
6.02594e-07
6.02669e-07
6.03461e-07
6.03492e-07
6.03397e-07
6.02348e-07
6.01076e-07
6.01077e-07
6.01077e-07
6.01077e-07
6.02483e-07
6.02863e-07
6.02677e-07
6.01076e-07
6.01078e-07
6.01077e-07
6.01077e-07
6.01078e-07
6.01077e-07
6.02909e-07
6.03654e-07
6.03568e-07
6.0262e-07
6.01077e-07
6.01077e-07
6.01077e-07
6.01077e-07
6.01077e-07
6.01077e-07
6.02916e-07
6.03546e-07
6.03531e-07
6.02594e-07
6.01077e-07
6.01077e-07
6.01077e-07
6.01077e-07
6.01077e-07
6.01077e-07
6.02897e-07
6.02976e-07
6.02669e-07
6.01077e-07
6.01078e-07
6.01077e-07
6.01077e-07
6.01078e-07
6.01077e-07
6.0292e-07
6.03686e-07
6.03461e-07
6.02483e-07
6.01077e-07
6.01077e-07
6.01077e-07
6.01077e-07
6.02715e-07
6.02925e-07
6.0364e-07
6.03492e-07
6.02863e-07
6.02909e-07
6.02916e-07
6.02897e-07
6.0292e-07
6.02925e-07
6.03599e-07
6.03654e-07
6.03546e-07
6.02976e-07
6.03686e-07
6.0364e-07
5.9436e-07
5.94323e-07
5.94188e-07
5.93469e-07
5.93411e-07
5.93385e-07
5.9346e-07
5.94252e-07
5.94283e-07
5.94188e-07
5.9314e-07
5.91868e-07
5.91868e-07
5.91868e-07
5.91868e-07
5.93274e-07
5.93654e-07
5.93469e-07
5.91868e-07
5.91869e-07
5.91868e-07
5.91868e-07
5.91869e-07
5.91868e-07
5.937e-07
5.94445e-07
5.9436e-07
5.93411e-07
5.91868e-07
5.91868e-07
5.91868e-07
5.91868e-07
5.91868e-07
5.91868e-07
5.93707e-07
5.94337e-07
5.94323e-07
5.93385e-07
5.91868e-07
5.91868e-07
5.91868e-07
5.91868e-07
5.91868e-07
5.91868e-07
5.93689e-07
5.93767e-07
5.9346e-07
5.91868e-07
5.91869e-07
5.91868e-07
5.91868e-07
5.91869e-07
5.91868e-07
5.93711e-07
5.94478e-07
5.94252e-07
5.93274e-07
5.91868e-07
5.91868e-07
5.91868e-07
5.91868e-07
5.93506e-07
5.93716e-07
5.94431e-07
5.94283e-07
5.93654e-07
5.937e-07
5.93707e-07
5.93689e-07
5.93711e-07
5.93716e-07
5.9439e-07
5.94445e-07
5.94337e-07
5.93767e-07
5.94478e-07
5.94431e-07
5.85151e-07
5.85114e-07
5.8498e-07
5.8426e-07
5.84202e-07
5.84176e-07
5.84251e-07
5.85044e-07
5.85074e-07
5.8498e-07
5.83931e-07
5.82659e-07
5.82659e-07
5.82659e-07
5.82659e-07
5.84065e-07
5.84445e-07
5.8426e-07
5.82659e-07
5.8266e-07
5.8266e-07
5.8266e-07
5.8266e-07
5.82659e-07
5.84491e-07
5.85237e-07
5.85151e-07
5.84202e-07
5.82659e-07
5.8266e-07
5.82659e-07
5.82659e-07
5.8266e-07
5.82659e-07
5.84498e-07
5.85129e-07
5.85114e-07
5.84176e-07
5.82659e-07
5.8266e-07
5.82659e-07
5.82659e-07
5.8266e-07
5.82659e-07
5.8448e-07
5.84558e-07
5.84251e-07
5.82659e-07
5.8266e-07
5.8266e-07
5.8266e-07
5.8266e-07
5.82659e-07
5.84502e-07
5.85269e-07
5.85044e-07
5.84065e-07
5.82659e-07
5.82659e-07
5.82659e-07
5.82659e-07
5.84297e-07
5.84507e-07
5.85223e-07