/*--------------------------------*- C++ -*----------------------------------*\
| =========                 |                                                 |
| \\      /  F ield         | OpenFOAM: The Open Source CFD Toolbox           |
|  \\    /   O peration     | Version:  v2012                                 |
|   \\  /    A nd           | Website:  www.openfoam.com                      |
|    \\/     M anipulation  |                                                 |
\*---------------------------------------------------------------------------*/
FoamFile
{
    version     2.0;
    format      ascii;
    class       volScalarField;
    location    "0.225";
    object      p;
}
// * * * * * * * * * * * * * * * * * * * * * * * * * * * * * * * * * * * * * //

dimensions      [0 2 -2 0 0 0 0];


internalField   nonuniform List<scalar> 
189320
(
-8.61635e-09
-6.46679e-09
-1.6606e-08
-1.71297e-08
-2.12234e-08
-2.25192e-08
-1.9165e-08
-1.81205e-08
-1.98489e-08
-1.66143e-08
-2.24257e-08
-2.21559e-08
-2.36417e-08
-2.39991e-08
-2.28849e-08
-2.22037e-08
-1.85925e-08
-1.71245e-08
-2.2156e-08
-2.44286e-08
-2.5422e-08
-2.5623e-08
-2.49697e-08
-2.33576e-08
-2.22852e-08
-1.69319e-08
-8.74726e-09
-2.11859e-08
-2.36282e-08
-2.54164e-08
-2.61116e-08
-2.62308e-08
-2.58497e-08
-2.46821e-08
-2.20228e-08
-1.67221e-08
-6.54957e-09
-2.25102e-08
-2.39825e-08
-2.56083e-08
-2.62209e-08
-2.63319e-08
-2.60094e-08
-2.50062e-08
-2.23983e-08
-1.91838e-08
-1.91483e-08
-2.28607e-08
-2.49456e-08
-2.5832e-08
-2.60012e-08
-2.54758e-08
-2.4087e-08
-2.20018e-08
-6.91581e-09
-1.80953e-08
-2.21706e-08
-2.33228e-08
-2.46514e-08
-2.49855e-08
-2.40771e-08
-2.22017e-08
-2.23963e-08
-1.71823e-08
-1.98154e-08
-1.85472e-08
-2.22268e-08
-2.19808e-08
-2.23648e-08
-2.19799e-08
-2.23803e-08
-2.33926e-08
-1.6894e-08
-1.6646e-08
-1.91048e-08
-6.87584e-09
-1.71494e-08
-2.81331e-08
-2.83612e-08
-2.6057e-08
-2.59901e-08
-2.58405e-08
-2.58589e-08
-2.60847e-08
-2.9222e-08
-2.83466e-08
-2.60105e-08
-2.22949e-08
-3.14161e-08
-3.23449e-08
-3.2327e-08
-3.13541e-08
-3.03971e-08
-3.14151e-08
-2.58157e-08
-3.15912e-08
-3.4839e-08
-3.44191e-08
-3.44151e-08
-3.47887e-08
-3.1471e-08
-3.76955e-08
-3.36492e-08
-2.80179e-08
-2.56329e-08
-3.23529e-08
-3.44294e-08
-3.4189e-08
-3.41869e-08
-3.44071e-08
-3.23546e-08
-3.79184e-08
-3.40439e-08
-2.82702e-08
-2.57526e-08
-3.23e-08
-3.44037e-08
-3.41809e-08
-3.41802e-08
-3.43936e-08
-3.23182e-08
-3.82997e-08
-3.18013e-08
-2.60179e-08
-3.13195e-08
-3.47688e-08
-3.43949e-08
-3.4407e-08
-3.4773e-08
-3.13095e-08
-3.84885e-08
-3.75219e-08
-2.91617e-08
-3.03651e-08
-3.14554e-08
-3.23203e-08
-3.23229e-08
-3.14864e-08
-4.58729e-08
-3.59717e-08
-3.14521e-08
-2.82973e-08
-3.13774e-08
-3.76276e-08
-3.78217e-08
-3.81386e-08
-3.78558e-08
-3.60272e-08
-3.73645e-08
-3.35877e-08
-3.39548e-08
-3.16765e-08
-3.73404e-08
-3.13521e-08
-2.85823e-08
-2.90956e-08
-2.65297e-08
-2.58992e-08
-2.5281e-08
-2.48375e-08
-2.60645e-08
-2.96889e-08
-2.91049e-08
-2.65294e-08
-2.13854e-08
-3.02385e-08
-3.04521e-08
-3.0454e-08
-3.02388e-08
-3.0466e-08
-3.14051e-08
-2.58923e-08
-3.02402e-08
-3.20649e-08
-3.21354e-08
-3.21442e-08
-3.20617e-08
-3.02365e-08
-3.87941e-08
-3.46518e-08
-2.85656e-08
-2.52692e-08
-3.04461e-08
-3.214e-08
-3.21406e-08
-3.21474e-08
-3.21389e-08
-3.04561e-08
-4.1448e-08
-3.42973e-08
-2.90742e-08
-2.48199e-08
-3.04388e-08
-3.21397e-08
-3.21439e-08
-3.21446e-08
-3.21351e-08
-3.04507e-08
-4.15577e-08
-3.25574e-08
-2.60512e-08
-3.0229e-08
-3.20564e-08
-3.21321e-08
-3.21412e-08
-3.20572e-08
-3.02274e-08
-4.09564e-08
-3.83434e-08
-2.96633e-08
-3.04503e-08
-3.02219e-08
-3.04418e-08
-3.04454e-08
-3.02301e-08
-4.64838e-08
-3.65573e-08
-3.29215e-08
-2.90826e-08
-3.13871e-08
-3.87676e-08
-4.14241e-08
-4.15415e-08
-4.09438e-08
-3.65677e-08
-3.84393e-08
-3.4632e-08
-3.42793e-08
-3.25419e-08
-3.83283e-08
-3.29178e-08
-2.83151e-08
-2.88332e-08
-2.62874e-08
-2.54395e-08
-2.47153e-08
-2.4162e-08
-2.56695e-08
-2.93739e-08
-2.89083e-08
-2.62821e-08
-2.06275e-08
-2.95728e-08
-2.96268e-08
-2.96287e-08
-2.95757e-08
-3.02665e-08
-3.12047e-08
-2.54479e-08
-2.95733e-08
-3.02446e-08
-3.03001e-08
-3.03068e-08
-3.0246e-08
-2.95733e-08
-3.86224e-08
-3.44335e-08
-2.83112e-08
-2.47121e-08
-2.96206e-08
-3.03031e-08
-3.03391e-08
-3.03437e-08
-3.0305e-08
-2.96309e-08
-4.16519e-08
-3.41067e-08
-2.8828e-08
-2.41577e-08
-2.96225e-08
-3.03069e-08
-3.03441e-08
-3.03448e-08
-3.03035e-08
-2.96276e-08
-4.17545e-08
-3.23243e-08
-2.56682e-08
-2.957e-08
-3.02456e-08
-3.03023e-08
-3.03079e-08
-3.02452e-08
-2.95764e-08
-4.1087e-08
-3.81678e-08
-2.93731e-08
-3.02631e-08
-2.95691e-08
-2.96206e-08
-2.96237e-08
-2.95727e-08
-4.6665e-08
-3.62004e-08
-3.27777e-08
-2.89031e-08
-3.12025e-08
-3.86121e-08
-4.16438e-08
-4.17543e-08
-4.11033e-08
-3.62122e-08
-3.82955e-08
-3.44209e-08
-3.41065e-08
-3.23154e-08
-3.81697e-08
-3.27794e-08
-2.77279e-08
-2.8249e-08
-2.57246e-08
-2.48101e-08
-2.39857e-08
-2.34222e-08
-2.50823e-08
-2.8805e-08
-2.83577e-08
-2.57337e-08
-1.98918e-08
-2.8877e-08
-2.88899e-08
-2.88883e-08
-2.88747e-08
-2.97287e-08
-3.0661e-08
-2.48244e-08
-2.88769e-08
-2.91178e-08
-2.91379e-08
-2.91404e-08
-2.91187e-08
-2.88803e-08
-3.80742e-08
-3.38762e-08
-2.77355e-08
-2.39888e-08
-2.88902e-08
-2.91383e-08
-2.91514e-08
-2.91546e-08
-2.91398e-08
-2.88934e-08
-4.11634e-08
-3.35349e-08
-2.82519e-08
-2.3428e-08
-2.88904e-08
-2.91385e-08
-2.91537e-08
-2.91557e-08
-2.91387e-08
-2.88921e-08
-4.12357e-08
-3.17348e-08
-2.50836e-08
-2.88772e-08
-2.91181e-08
-2.91385e-08
-2.91417e-08
-2.91195e-08
-2.88774e-08
-4.04655e-08
-3.76209e-08
-2.88058e-08
-2.97262e-08
-2.88767e-08
-2.88893e-08
-2.88897e-08
-2.88768e-08
-4.62131e-08
-3.56179e-08
-3.22542e-08
-2.83675e-08
-3.06703e-08
-3.80722e-08
-4.11605e-08
-4.12405e-08
-4.0475e-08
-3.56304e-08
-3.7773e-08
-3.38736e-08
-3.35391e-08
-3.17402e-08
-3.76206e-08
-3.22531e-08
-2.70342e-08
-2.75535e-08
-2.50505e-08
-2.41006e-08
-2.32415e-08
-2.26774e-08
-2.43867e-08
-2.81184e-08
-2.76922e-08
-2.50517e-08
-1.91459e-08
-2.81502e-08
-2.81534e-08
-2.81531e-08
-2.81507e-08
-2.90513e-08
-2.99968e-08
-2.41158e-08
-2.81537e-08
-2.82395e-08
-2.82487e-08
-2.82483e-08
-2.82398e-08
-2.81535e-08
-3.73872e-08
-3.31837e-08
-2.70432e-08
-2.32423e-08
-2.81552e-08
-2.82485e-08
-2.82523e-08
-2.82517e-08
-2.82489e-08
-2.81557e-08
-4.04926e-08
-3.28532e-08
-2.756e-08
-2.26806e-08
-2.81536e-08
-2.82485e-08
-2.82524e-08
-2.82514e-08
-2.82479e-08
-2.81556e-08
-4.05599e-08
-3.10456e-08
-2.43889e-08
-2.81524e-08
-2.82394e-08
-2.82484e-08
-2.82482e-08
-2.82389e-08
-2.81531e-08
-3.97564e-08
-3.69397e-08
-2.81236e-08
-2.90569e-08
-2.81519e-08
-2.81537e-08
-2.81552e-08
-2.81531e-08
-4.5576e-08
-3.49348e-08
-3.15788e-08
-2.77022e-08
-2.99986e-08
-3.7386e-08
-4.04929e-08
-4.05652e-08
-3.97682e-08
-3.49494e-08
-3.71167e-08
-3.31941e-08
-3.28519e-08
-3.10488e-08
-3.69413e-08
-3.15812e-08
-2.63128e-08
-2.68319e-08
-2.43329e-08
-2.33701e-08
-2.24859e-08
-2.19338e-08
-2.36742e-08
-2.74015e-08
-2.69783e-08
-2.43315e-08
-1.84025e-08
-2.74225e-08
-2.74143e-08
-2.74157e-08
-2.74216e-08
-2.8336e-08
-2.92831e-08
-2.33792e-08
-2.74169e-08
-2.74493e-08
-2.74515e-08
-2.74515e-08
-2.74488e-08
-2.74151e-08
-3.66678e-08
-3.24697e-08
-2.63153e-08
-2.24872e-08
-2.74136e-08
-2.74525e-08
-2.74535e-08
-2.74532e-08
-2.74528e-08
-2.74172e-08
-3.97744e-08
-3.21297e-08
-2.68321e-08
-2.1936e-08
-2.74165e-08
-2.74532e-08
-2.74544e-08
-2.7453e-08
-2.74524e-08
-2.74169e-08
-3.98342e-08
-3.03211e-08
-2.36743e-08
-2.74173e-08
-2.74486e-08
-2.74518e-08
-2.7451e-08
-2.74477e-08
-2.74177e-08
-3.90286e-08
-3.62257e-08
-2.74014e-08
-2.83372e-08
-2.74184e-08
-2.74176e-08
-2.74183e-08
-2.74189e-08
-4.48731e-08
-3.42134e-08
-3.08676e-08
-2.69842e-08
-2.92852e-08
-3.66661e-08
-3.97755e-08
-3.98328e-08
-3.90343e-08
-3.42236e-08
-3.64018e-08
-3.24812e-08
-3.21275e-08
-3.03201e-08
-3.62289e-08
-3.08641e-08
-2.55775e-08
-2.60965e-08
-2.35998e-08
-2.26329e-08
-2.1744e-08
-2.11972e-08
-2.29445e-08
-2.66699e-08
-2.62476e-08
-2.35983e-08
-1.76606e-08
-2.66797e-08
-2.66827e-08
-2.66828e-08
-2.66795e-08
-2.76033e-08
-2.85503e-08
-2.26425e-08
-2.66817e-08
-2.66905e-08
-2.66922e-08
-2.66928e-08
-2.66884e-08
-2.66808e-08
-3.59284e-08
-3.17355e-08
-2.55799e-08
-2.17444e-08
-2.66822e-08
-2.66914e-08
-2.66933e-08
-2.66943e-08
-2.66907e-08
-2.66811e-08
-3.90362e-08
-3.13931e-08
-2.60966e-08
-2.11962e-08
-2.66816e-08
-2.66923e-08
-2.66931e-08
-2.6694e-08
-2.66913e-08
-2.66805e-08
-3.90939e-08
-2.95838e-08
-2.29414e-08
-2.66807e-08
-2.66899e-08
-2.66912e-08
-2.66918e-08
-2.66902e-08
-2.66802e-08
-3.82826e-08
-3.54928e-08
-2.66684e-08
-2.76052e-08
-2.66811e-08
-2.66824e-08
-2.66816e-08
-2.66795e-08
-4.41484e-08
-3.34839e-08
-3.01358e-08
-2.62544e-08
-2.85551e-08
-3.59325e-08
-3.90417e-08
-3.90997e-08
-3.82961e-08
-3.34942e-08
-3.56709e-08
-3.17478e-08
-3.13958e-08
-2.95845e-08
-3.5497e-08
-3.01378e-08
-2.48407e-08
-2.53595e-08
-2.28657e-08
-2.18945e-08
-2.10041e-08
-2.0456e-08
-2.2206e-08
-2.5933e-08
-2.5512e-08
-2.28641e-08
-1.69197e-08
-2.59418e-08
-2.59415e-08
-2.59412e-08
-2.59402e-08
-2.68681e-08
-2.78163e-08
-2.1905e-08
-2.59389e-08
-2.59476e-08
-2.59486e-08
-2.59482e-08
-2.5947e-08
-2.59444e-08
-3.51949e-08
-3.10005e-08
-2.48433e-08
-2.1005e-08
-2.59418e-08
-2.59494e-08
-2.5949e-08
-2.59488e-08
-2.5947e-08
-2.59439e-08
-3.83041e-08
-3.06579e-08
-2.536e-08
-2.04551e-08
-2.59412e-08
-2.59463e-08
-2.59462e-08
-2.5948e-08
-2.59473e-08
-2.59433e-08
-3.83594e-08
-2.88494e-08
-2.2204e-08
-2.59438e-08
-2.59505e-08
-2.59517e-08
-2.59496e-08
-2.59481e-08
-2.59412e-08
-3.75463e-08
-3.47558e-08
-2.59303e-08
-2.68711e-08
-2.59386e-08
-2.59396e-08
-2.59406e-08
-2.59389e-08
-4.34113e-08
-3.27475e-08
-2.93991e-08
-2.55191e-08
-2.78204e-08
-3.51968e-08
-3.83072e-08
-3.8364e-08
-3.75601e-08
-3.27577e-08
-3.49372e-08
-3.10108e-08
-3.06586e-08
-2.88483e-08
-3.47591e-08
-2.9399e-08
-2.4103e-08
-2.46221e-08
-2.2129e-08
-2.11538e-08
-2.02626e-08
-1.97161e-08
-2.14702e-08
-2.51967e-08
-2.47752e-08
-2.21271e-08
-1.61812e-08
-2.52031e-08
-2.52031e-08
-2.52036e-08
-2.52039e-08
-2.61322e-08
-2.70792e-08
-2.11661e-08
-2.52038e-08
-2.52067e-08
-2.52072e-08
-2.52061e-08
-2.52056e-08
-2.52037e-08
-3.44574e-08
-3.02633e-08
-2.41058e-08
-2.02651e-08
-2.52033e-08
-2.52042e-08
-2.52062e-08
-2.52043e-08
-2.52063e-08
-2.52031e-08
-3.75662e-08
-2.99205e-08
-2.46225e-08
-1.97158e-08
-2.52038e-08
-2.52071e-08
-2.52074e-08
-2.52052e-08
-2.52087e-08
-2.52038e-08
-3.76211e-08
-2.81113e-08
-2.1468e-08
-2.52017e-08
-2.52055e-08
-2.52056e-08
-2.5205e-08
-2.52058e-08
-2.52016e-08
-3.68082e-08
-3.40199e-08
-2.51939e-08
-2.6137e-08
-2.52037e-08
-2.52037e-08
-2.52035e-08
-2.52037e-08
-4.26742e-08
-3.20114e-08
-2.86632e-08
-2.47819e-08
-2.70837e-08
-3.446e-08
-3.75737e-08
-3.76268e-08
-3.68227e-08
-3.20216e-08
-3.42014e-08
-3.02746e-08
-2.9922e-08
-2.81114e-08
-3.40242e-08
-2.86642e-08
-2.33657e-08
-2.38844e-08
-2.13844e-08
-2.04193e-08
-1.95252e-08
-1.89789e-08
-2.07336e-08
-2.44561e-08
-2.40362e-08
-2.13856e-08
-1.54433e-08
-2.44662e-08
-2.44664e-08
-2.44667e-08
-2.44669e-08
-2.53936e-08
-2.63402e-08
-2.04275e-08
-2.44663e-08
-2.4465e-08
-2.44659e-08
-2.44657e-08
-2.44648e-08
-2.44657e-08
-3.37168e-08
-2.95234e-08
-2.33673e-08
-1.95258e-08
-2.44656e-08
-2.44658e-08
-2.44659e-08
-2.44659e-08
-2.44656e-08
-2.44653e-08
-3.68257e-08
-2.91807e-08
-2.38841e-08
-1.8978e-08
-2.44657e-08
-2.44658e-08
-2.44658e-08
-2.44658e-08
-2.44656e-08
-2.44652e-08
-3.68799e-08
-2.73705e-08
-2.07313e-08
-2.44659e-08
-2.44652e-08
-2.44653e-08
-2.44655e-08
-2.44646e-08
-2.44658e-08
-3.60682e-08
-3.32807e-08
-2.44554e-08
-2.53985e-08
-2.44659e-08
-2.44652e-08
-2.44653e-08
-2.44658e-08
-4.19343e-08
-3.12713e-08
-2.79242e-08
-2.40426e-08
-2.63447e-08
-3.37204e-08
-3.68343e-08
-3.68875e-08
-3.60825e-08
-3.12816e-08
-3.3462e-08
-2.95354e-08
-2.91831e-08
-2.73723e-08
-3.32856e-08
-2.79257e-08
-2.26274e-08
-2.31458e-08
-2.0653e-08
-1.96799e-08
-1.87868e-08
-1.82401e-08
-1.99945e-08
-2.37165e-08
-2.33038e-08
-2.06482e-08
-1.47045e-08
-2.37274e-08
-2.37272e-08
-2.37275e-08
-2.37276e-08
-2.46568e-08
-2.56048e-08
-1.96889e-08
-2.37274e-08
-2.37273e-08
-2.37272e-08
-2.37271e-08
-2.37266e-08
-2.37264e-08
-3.29789e-08
-2.87854e-08
-2.26285e-08
-1.87864e-08
-2.37268e-08
-2.37271e-08
-2.37269e-08
-2.37269e-08
-2.37267e-08
-2.37263e-08
-3.60854e-08
-2.84417e-08
-2.31451e-08
-1.82377e-08
-2.37266e-08
-2.37269e-08
-2.37268e-08
-2.37267e-08
-2.37267e-08
-2.37262e-08
-3.61404e-08
-2.66315e-08
-1.99925e-08
-2.37267e-08
-2.37267e-08
-2.37266e-08
-2.37266e-08
-2.37264e-08
-2.37263e-08
-3.53297e-08
-3.25421e-08
-2.37166e-08
-2.46601e-08
-2.37264e-08
-2.37267e-08
-2.37267e-08
-2.37264e-08
-4.11964e-08
-3.05332e-08
-2.71856e-08
-2.33042e-08
-2.56065e-08
-3.2982e-08
-3.60938e-08
-3.61478e-08
-3.53439e-08
-3.05432e-08
-3.27236e-08
-2.87965e-08
-2.84435e-08
-2.66329e-08
-3.25464e-08
-2.71866e-08
-2.18885e-08
-2.24083e-08
-1.99105e-08
-1.89412e-08
-1.80477e-08
-1.75025e-08
-1.92605e-08
-2.29855e-08
-2.25565e-08
-1.99094e-08
-1.3964e-08
-2.29882e-08
-2.29881e-08
-2.29881e-08
-2.29882e-08
-2.39202e-08
-2.48611e-08
-1.89502e-08
-2.29882e-08
-2.29888e-08
-2.29886e-08
-2.29886e-08
-2.29884e-08
-2.29876e-08
-3.22392e-08
-2.80454e-08
-2.18899e-08
-1.80476e-08
-2.29881e-08
-2.29885e-08
-2.2988e-08
-2.29879e-08
-2.29882e-08
-2.29875e-08
-3.53468e-08
-2.77025e-08
-2.24065e-08
-1.7499e-08
-2.29878e-08
-2.29884e-08
-2.29886e-08
-2.29885e-08
-2.29881e-08
-2.29874e-08
-3.5402e-08
-2.58928e-08
-1.9254e-08
-2.29879e-08
-2.29882e-08
-2.29875e-08
-2.29874e-08
-2.2988e-08
-2.29874e-08
-3.45912e-08
-3.18033e-08
-2.29781e-08
-2.39214e-08
-2.29876e-08
-2.29874e-08
-2.29873e-08
-2.29875e-08
-4.04579e-08
-2.97946e-08
-2.64467e-08
-2.25655e-08
-2.48679e-08
-3.22437e-08
-3.53561e-08
-3.54114e-08
-3.46057e-08
-2.98047e-08
-3.19848e-08
-2.8058e-08
-2.77049e-08
-2.58948e-08
-3.18079e-08
-2.64479e-08
-2.11499e-08
-2.16687e-08
-1.91743e-08
-1.82024e-08
-1.73094e-08
-1.67634e-08
-1.8521e-08
-2.22459e-08
-2.18196e-08
-1.9171e-08
-1.3226e-08
-2.22501e-08
-2.225e-08
-2.225e-08
-2.22497e-08
-2.31822e-08
-2.4124e-08
-1.8212e-08
-2.22502e-08
-2.22501e-08
-2.225e-08
-2.225e-08
-2.22498e-08
-2.22499e-08
-3.15015e-08
-2.73082e-08
-2.11517e-08
-1.73096e-08
-2.22501e-08
-2.225e-08
-2.225e-08
-2.225e-08
-2.225e-08
-2.22498e-08
-3.46088e-08
-2.69649e-08
-2.16684e-08
-1.6761e-08
-2.225e-08
-2.225e-08
-2.22499e-08
-2.22498e-08
-2.22497e-08
-2.22497e-08
-3.46639e-08
-2.51549e-08
-1.8516e-08
-2.225e-08
-2.22498e-08
-2.22498e-08
-2.22497e-08
-2.22497e-08
-2.22497e-08
-3.3853e-08
-3.10652e-08
-2.22399e-08
-2.31833e-08
-2.22497e-08
-2.22496e-08
-2.22496e-08
-2.22496e-08
-3.97198e-08
-2.90565e-08
-2.57086e-08
-2.18273e-08
-2.41297e-08
-3.15053e-08
-3.46179e-08
-3.46731e-08
-3.38673e-08
-2.90664e-08
-3.12465e-08
-2.73198e-08
-2.69669e-08
-2.51565e-08
-3.10695e-08
-2.57096e-08
-2.04117e-08
-2.09303e-08
-1.84361e-08
-1.74645e-08
-1.6571e-08
-1.60252e-08
-1.77832e-08
-2.15062e-08
-2.10803e-08
-1.84329e-08
-1.24878e-08
-2.1512e-08
-2.15119e-08
-2.15118e-08
-2.15118e-08
-2.24437e-08
-2.33856e-08
-1.7474e-08
-2.15121e-08
-2.1512e-08
-2.1512e-08
-2.1512e-08
-2.15119e-08
-2.15119e-08
-3.07633e-08
-2.65703e-08
-2.04138e-08
-1.65716e-08
-2.15121e-08
-2.1512e-08
-2.1512e-08
-2.15119e-08
-2.15119e-08
-2.15119e-08
-3.38708e-08
-2.62272e-08
-2.09305e-08
-1.60232e-08
-2.15122e-08
-2.1512e-08
-2.1512e-08
-2.15119e-08
-2.15119e-08
-2.15119e-08
-3.39261e-08
-2.44172e-08
-1.77782e-08
-2.15122e-08
-2.15119e-08
-2.15119e-08
-2.15119e-08
-2.15119e-08
-2.1512e-08
-3.31153e-08
-3.03276e-08
-2.15022e-08
-2.24456e-08
-2.1512e-08
-2.1512e-08
-2.15119e-08
-2.1512e-08
-3.89822e-08
-2.8319e-08
-2.49711e-08
-2.10896e-08
-2.3392e-08
-3.07676e-08
-3.38802e-08
-3.39355e-08
-3.31297e-08
-2.8329e-08
-3.05091e-08
-2.65822e-08
-2.62294e-08
-2.44191e-08
-3.03321e-08
-2.49722e-08
-1.9674e-08
-2.01923e-08
-1.76978e-08
-1.67264e-08
-1.58329e-08
-1.52872e-08
-1.70451e-08
-2.07695e-08
-2.03434e-08
-1.76949e-08
-1.17512e-08
-2.07739e-08
-2.07738e-08
-2.07737e-08
-2.07736e-08
-2.1706e-08
-2.26478e-08
-1.67359e-08
-2.0774e-08
-2.0774e-08
-2.07739e-08
-2.07738e-08
-2.07737e-08
-2.07737e-08
-3.00254e-08
-2.58324e-08
-1.96758e-08
-1.58336e-08
-2.07742e-08
-2.0774e-08
-2.07739e-08
-2.07739e-08
-2.07738e-08
-2.07738e-08
-3.31328e-08
-2.54891e-08
-2.01927e-08
-1.52853e-08
-2.07742e-08
-2.0774e-08
-2.0774e-08
-2.07739e-08
-2.07739e-08
-2.07739e-08
-3.31881e-08
-2.36792e-08
-1.70404e-08
-2.07742e-08
-2.07739e-08
-2.07739e-08
-2.07739e-08
-2.07739e-08
-2.0774e-08
-3.23774e-08
-2.95898e-08
-2.07645e-08
-2.17079e-08
-2.0774e-08
-2.07739e-08
-2.07738e-08
-2.0774e-08
-3.82444e-08
-2.75811e-08
-2.42333e-08
-2.03518e-08
-2.26543e-08
-3.00301e-08
-3.31429e-08
-3.31986e-08
-3.23925e-08
-2.75914e-08
-2.97715e-08
-2.58449e-08
-2.54924e-08
-2.36813e-08
-2.95947e-08
-2.42348e-08
-1.89356e-08
-1.9454e-08
-1.69597e-08
-1.5988e-08
-1.50946e-08
-1.45489e-08
-1.6307e-08
-2.00288e-08
-1.96051e-08
-1.69566e-08
-1.10124e-08
-2.00355e-08
-2.00351e-08
-2.0035e-08
-2.00354e-08
-2.09676e-08
-2.19095e-08
-1.59976e-08
-2.00357e-08
-2.00356e-08
-2.00355e-08
-2.00354e-08
-2.00354e-08
-2.00355e-08
-2.92871e-08
-2.50941e-08
-1.89375e-08
-1.50954e-08
-2.00359e-08
-2.00357e-08
-2.00357e-08
-2.00356e-08
-2.00356e-08
-2.00356e-08
-3.23945e-08
-2.47509e-08
-1.94544e-08
-1.4547e-08
-2.00359e-08
-2.00357e-08
-2.00356e-08
-2.00355e-08
-2.00355e-08
-2.00356e-08
-3.24498e-08
-2.29409e-08
-1.63021e-08
-2.00359e-08
-2.00357e-08
-2.00357e-08
-2.00356e-08
-2.00356e-08
-2.00357e-08
-3.16391e-08
-2.88514e-08
-2.00262e-08
-2.09695e-08
-2.00357e-08
-2.00357e-08
-2.00356e-08
-2.00357e-08
-3.75061e-08
-2.68428e-08
-2.3495e-08
-1.96135e-08
-2.19159e-08
-2.92916e-08
-3.24044e-08
-3.24595e-08
-3.16535e-08
-2.68529e-08
-2.90331e-08
-2.51063e-08
-2.47535e-08
-2.29425e-08
-2.88568e-08
-2.34963e-08
-1.81975e-08
-1.87158e-08
-1.62221e-08
-1.52501e-08
-1.43564e-08
-1.38107e-08
-1.55689e-08
-1.92912e-08
-1.88666e-08
-1.62187e-08
-1.02744e-08
-1.92975e-08
-1.92974e-08
-1.92973e-08
-1.92972e-08
-2.02296e-08
-2.11709e-08
-1.52595e-08
-1.92976e-08
-1.92974e-08
-1.92974e-08
-1.92973e-08
-1.92972e-08
-1.92973e-08
-2.85504e-08
-2.43556e-08
-1.81993e-08
-1.43572e-08
-1.92976e-08
-1.92974e-08
-1.92973e-08
-1.92973e-08
-1.92972e-08
-1.92972e-08
-3.16561e-08
-2.40126e-08
-1.87161e-08
-1.38087e-08
-1.92975e-08
-1.92974e-08
-1.92973e-08
-1.92972e-08
-1.92972e-08
-1.92972e-08
-3.17115e-08
-2.22026e-08
-1.55638e-08
-1.92975e-08
-1.92973e-08
-1.92972e-08
-1.92972e-08
-1.92971e-08
-1.92972e-08
-3.09007e-08
-2.81131e-08
-1.92878e-08
-2.02311e-08
-1.92972e-08
-1.92972e-08
-1.92972e-08
-1.92972e-08
-3.67676e-08
-2.61043e-08
-2.27566e-08
-1.88751e-08
-2.11775e-08
-2.85529e-08
-3.16648e-08
-3.17186e-08
-3.09147e-08
-2.61144e-08
-2.82946e-08
-2.43679e-08
-2.4015e-08
-2.22038e-08
-2.81181e-08
-2.27577e-08
-1.74591e-08
-1.79774e-08
-1.54834e-08
-1.45114e-08
-1.36179e-08
-1.30722e-08
-1.483e-08
-1.85544e-08
-1.81281e-08
-1.54801e-08
-9.53572e-09
-1.85588e-08
-1.85588e-08
-1.85587e-08
-1.85588e-08
-1.94911e-08
-2.04324e-08
-1.45209e-08
-1.85589e-08
-1.85588e-08
-1.85587e-08
-1.85587e-08
-1.85585e-08
-1.85586e-08
-2.78118e-08
-2.36173e-08
-1.7461e-08
-1.36186e-08
-1.85589e-08
-1.85587e-08
-1.85587e-08
-1.85587e-08
-1.85586e-08
-1.85586e-08
-3.09177e-08
-2.32742e-08
-1.79777e-08
-1.30702e-08
-1.85589e-08
-1.85587e-08
-1.85587e-08
-1.85587e-08
-1.85586e-08
-1.85586e-08
-3.0973e-08
-2.14641e-08
-1.48253e-08
-1.85588e-08
-1.85585e-08
-1.85584e-08
-1.85584e-08
-1.85583e-08
-1.85585e-08
-3.01621e-08
-2.73746e-08
-1.85495e-08
-1.94926e-08
-1.85586e-08
-1.85585e-08
-1.85586e-08
-1.85586e-08
-3.60292e-08
-2.53658e-08
-2.2018e-08
-1.81366e-08
-2.0439e-08
-2.78148e-08
-3.09272e-08
-3.09821e-08
-3.01766e-08
-2.53759e-08
-2.75561e-08
-2.36299e-08
-2.3277e-08
-2.14676e-08
-2.738e-08
-2.20195e-08
-1.67198e-08
-1.72382e-08
-1.47441e-08
-1.37721e-08
-1.28786e-08
-1.2333e-08
-1.40912e-08
-1.7816e-08
-1.73889e-08
-1.47408e-08
-8.79642e-09
-1.78197e-08
-1.78197e-08
-1.78197e-08
-1.78198e-08
-1.87523e-08
-1.96937e-08
-1.37816e-08
-1.78198e-08
-1.78197e-08
-1.78197e-08
-1.78197e-08
-1.78197e-08
-1.782e-08
-2.70731e-08
-2.28791e-08
-1.67215e-08
-1.28793e-08
-1.78198e-08
-1.78197e-08
-1.78197e-08
-1.78198e-08
-1.78198e-08
-1.78199e-08
-3.01789e-08
-2.25353e-08
-1.72383e-08
-1.23308e-08
-1.78198e-08
-1.78197e-08
-1.78197e-08
-1.78197e-08
-1.78198e-08
-1.78198e-08
-3.02342e-08
-2.07252e-08
-1.40858e-08
-1.78198e-08
-1.78196e-08
-1.78196e-08
-1.78197e-08
-1.78196e-08
-1.78198e-08
-2.94233e-08
-2.66357e-08
-1.781e-08
-1.87533e-08
-1.78196e-08
-1.78196e-08
-1.78196e-08
-1.78197e-08
-3.52902e-08
-2.46269e-08
-2.12791e-08
-1.73973e-08
-1.96996e-08
-2.70749e-08
-3.01851e-08
-3.024e-08
-2.94368e-08
-2.46367e-08
-2.68171e-08
-2.28902e-08
-2.25372e-08
-2.07267e-08
-2.66422e-08
-2.12801e-08
-1.59804e-08
-1.6498e-08
-1.40052e-08
-1.30332e-08
-1.21395e-08
-1.15928e-08
-1.33462e-08
-1.70715e-08
-1.66583e-08
-1.40019e-08
-8.0577e-09
-1.70814e-08
-1.70814e-08
-1.70815e-08
-1.70816e-08
-1.80113e-08
-1.89605e-08
-1.3043e-08
-1.70814e-08
-1.70814e-08
-1.70814e-08
-1.70815e-08
-1.70815e-08
-1.70818e-08
-2.6336e-08
-2.21419e-08
-1.59828e-08
-1.21408e-08
-1.70816e-08
-1.70814e-08
-1.70815e-08
-1.70815e-08
-1.70815e-08
-1.70817e-08
-2.94409e-08
-2.17975e-08
-1.64996e-08
-1.15923e-08
-1.70816e-08
-1.70814e-08
-1.70815e-08
-1.70815e-08
-1.70815e-08
-1.70816e-08
-2.94959e-08
-1.9987e-08
-1.33474e-08
-1.70816e-08
-1.70814e-08
-1.70814e-08
-1.70814e-08
-1.70814e-08
-1.70816e-08
-2.8685e-08
-2.58973e-08
-1.70714e-08
-1.8015e-08
-1.70815e-08
-1.70814e-08
-1.70815e-08
-1.70815e-08
-3.45519e-08
-2.38885e-08
-2.05407e-08
-1.66589e-08
-1.89614e-08
-2.63367e-08
-2.94471e-08
-2.95025e-08
-2.86995e-08
-2.38986e-08
-2.60787e-08
-2.21516e-08
-2.17988e-08
-1.99887e-08
-2.59033e-08
-2.05417e-08
-1.52432e-08
-1.57614e-08
-1.32688e-08
-1.22969e-08
-1.1402e-08
-1.0856e-08
-1.26103e-08
-1.63364e-08
-1.59196e-08
-1.32644e-08
-7.32033e-09
-1.63436e-08
-1.63437e-08
-1.63438e-08
-1.63439e-08
-1.72734e-08
-1.82213e-08
-1.23054e-08
-1.63437e-08
-1.63438e-08
-1.63438e-08
-1.63438e-08
-1.63438e-08
-1.63438e-08
-2.55977e-08
-2.14032e-08
-1.52452e-08
-1.14031e-08
-1.63438e-08
-1.63437e-08
-1.63437e-08
-1.63437e-08
-1.63437e-08
-1.63438e-08
-2.87029e-08
-2.10593e-08
-1.5762e-08
-1.08547e-08
-1.63438e-08
-1.63437e-08
-1.63437e-08
-1.63437e-08
-1.63437e-08
-1.63438e-08
-2.87581e-08
-1.92492e-08
-1.26097e-08
-1.63438e-08
-1.63436e-08
-1.63437e-08
-1.63437e-08
-1.63436e-08
-1.63438e-08
-2.79472e-08
-2.51595e-08
-1.63338e-08
-1.72773e-08
-1.63437e-08
-1.63437e-08
-1.63437e-08
-1.63438e-08
-3.38141e-08
-2.31508e-08
-1.98029e-08
-1.59213e-08
-1.82238e-08
-2.55993e-08
-2.87099e-08
-2.87649e-08
-2.79618e-08
-2.31609e-08
-2.53409e-08
-2.14142e-08
-2.10615e-08
-1.92517e-08
-2.51658e-08
-1.98025e-08
-1.45058e-08
-1.50238e-08
-1.25317e-08
-1.15591e-08
-1.06643e-08
-1.01182e-08
-1.18724e-08
-1.55986e-08
-1.5181e-08
-1.25272e-08
-6.58304e-09
-1.56056e-08
-1.56056e-08
-1.56055e-08
-1.56056e-08
-1.65348e-08
-1.7483e-08
-1.15677e-08
-1.56056e-08
-1.56055e-08
-1.56054e-08
-1.56054e-08
-1.56054e-08
-1.56054e-08
-2.48596e-08
-2.06653e-08
-1.45075e-08
-1.06653e-08
-1.56055e-08
-1.56054e-08
-1.56054e-08
-1.56054e-08
-1.56053e-08
-1.56054e-08
-2.79648e-08
-2.03214e-08
-1.50241e-08
-1.01167e-08
-1.56055e-08
-1.56054e-08
-1.56053e-08
-1.56053e-08
-1.56053e-08
-1.56054e-08
-2.802e-08
-1.85112e-08
-1.18717e-08
-1.56055e-08
-1.56053e-08
-1.56053e-08
-1.56053e-08
-1.56053e-08
-1.56054e-08
-2.72092e-08
-2.44217e-08
-1.55959e-08
-1.65392e-08
-1.56052e-08
-1.56052e-08
-1.56052e-08
-1.56053e-08
-3.30758e-08
-2.24128e-08
-1.90652e-08
-1.51834e-08
-1.74858e-08
-2.48611e-08
-2.79717e-08
-2.80267e-08
-2.72237e-08
-2.24228e-08
-2.4603e-08
-2.06763e-08
-2.03235e-08
-1.85136e-08
-2.44278e-08
-1.90646e-08
-1.37663e-08
-1.42842e-08
-1.17922e-08
-1.08194e-08
-9.92477e-09
-9.37843e-09
-1.11321e-08
-1.4859e-08
-1.44433e-08
-1.17877e-08
-5.84351e-09
-1.48663e-08
-1.48662e-08
-1.48661e-08
-1.48659e-08
-1.5795e-08
-1.6744e-08
-1.08283e-08
-1.48662e-08
-1.48662e-08
-1.48661e-08
-1.48661e-08
-1.48662e-08
-1.48661e-08
-2.41201e-08
-1.99255e-08
-1.37683e-08
-9.92601e-09
-1.48662e-08
-1.48661e-08
-1.48661e-08
-1.4866e-08
-1.4866e-08
-1.48661e-08
-2.72254e-08
-1.95821e-08
-1.4285e-08
-9.37741e-09
-1.48661e-08
-1.4866e-08
-1.4866e-08
-1.4866e-08
-1.4866e-08
-1.4866e-08
-2.72805e-08
-1.77717e-08
-1.11323e-08
-1.48661e-08
-1.48659e-08
-1.48659e-08
-1.48659e-08
-1.48659e-08
-1.4866e-08
-2.64696e-08
-2.36822e-08
-1.48566e-08
-1.57998e-08
-1.48659e-08
-1.48659e-08
-1.48659e-08
-1.48659e-08
-3.23363e-08
-2.16732e-08
-1.83257e-08
-1.44441e-08
-1.67463e-08
-2.41216e-08
-2.72321e-08
-2.72871e-08
-2.6484e-08
-2.16832e-08
-2.38635e-08
-1.99369e-08
-1.95839e-08
-1.77741e-08
-2.36879e-08
-1.83251e-08
-1.30268e-08
-1.35449e-08
-1.1053e-08
-1.00796e-08
-9.18509e-09
-8.63927e-09
-1.03931e-08
-1.41185e-08
-1.37039e-08
-1.10483e-08
-5.10409e-09
-1.4127e-08
-1.4127e-08
-1.4127e-08
-1.41269e-08
-1.50561e-08
-1.60051e-08
-1.00888e-08
-1.41269e-08
-1.41267e-08
-1.41268e-08
-1.41269e-08
-1.41268e-08
-1.41269e-08
-2.33809e-08
-1.9186e-08
-1.30286e-08
-9.18643e-09
-1.41268e-08
-1.41268e-08
-1.41268e-08
-1.41268e-08
-1.41268e-08
-1.41268e-08
-2.6486e-08
-1.88426e-08
-1.35452e-08
-8.6378e-09
-1.41267e-08
-1.41267e-08
-1.41267e-08
-1.41267e-08
-1.41267e-08
-1.41267e-08
-2.6541e-08
-1.70322e-08
-1.03927e-08
-1.41267e-08
-1.41265e-08
-1.41266e-08
-1.41266e-08
-1.41266e-08
-1.41267e-08
-2.57301e-08
-2.29426e-08
-1.41168e-08
-1.50602e-08
-1.41265e-08
-1.41265e-08
-1.41265e-08
-1.41266e-08
-3.15969e-08
-2.09337e-08
-1.7586e-08
-1.37043e-08
-1.60066e-08
-2.3382e-08
-2.64925e-08
-2.65476e-08
-2.57445e-08
-2.09437e-08
-2.31239e-08
-1.91971e-08
-1.88443e-08
-1.70346e-08
-2.29483e-08
-1.75855e-08
-1.22879e-08
-1.2806e-08
-1.03139e-08
-9.34056e-09
-8.44619e-09
-7.9004e-09
-9.65443e-09
-1.33802e-08
-1.29653e-08
-1.03092e-08
-4.36518e-09
-1.33881e-08
-1.33881e-08
-1.3388e-08
-1.3388e-08
-1.43168e-08
-1.52662e-08
-9.34974e-09
-1.33879e-08
-1.33878e-08
-1.33879e-08
-1.33879e-08
-1.33878e-08
-1.33878e-08
-2.2642e-08
-1.8447e-08
-1.22895e-08
-8.44744e-09
-1.33879e-08
-1.33878e-08
-1.33879e-08
-1.33878e-08
-1.33878e-08
-1.33878e-08
-2.57471e-08
-1.81037e-08
-1.28062e-08
-7.89888e-09
-1.33879e-08
-1.33877e-08
-1.33878e-08
-1.33877e-08
-1.33878e-08
-1.33878e-08
-2.58021e-08
-1.62934e-08
-9.65387e-09
-1.33879e-08
-1.33877e-08
-1.33877e-08
-1.33877e-08
-1.33877e-08
-1.33878e-08
-2.49913e-08
-2.22038e-08
-1.3378e-08
-1.43214e-08
-1.33876e-08
-1.33877e-08
-1.33877e-08
-1.33877e-08
-3.0858e-08
-2.01949e-08
-1.68472e-08
-1.29655e-08
-1.52679e-08
-2.26432e-08
-2.57537e-08
-2.58087e-08
-2.50056e-08
-2.02048e-08
-2.23851e-08
-1.84581e-08
-1.81053e-08
-1.62956e-08
-2.22092e-08
-1.68465e-08
-1.15491e-08
-1.20671e-08
-9.57514e-09
-8.60165e-09
-7.70722e-09
-7.16146e-09
-8.91575e-09
-1.26403e-08
-1.22259e-08
-9.57052e-09
-3.62637e-09
-1.26491e-08
-1.26491e-08
-1.2649e-08
-1.26491e-08
-1.35776e-08
-1.4527e-08
-8.61102e-09
-1.2649e-08
-1.26487e-08
-1.2649e-08
-1.26487e-08
-1.26488e-08
-1.26487e-08
-2.19029e-08
-1.7708e-08
-1.15508e-08
-7.70861e-09
-1.26488e-08
-1.26489e-08
-1.2649e-08
-1.26489e-08
-1.26489e-08
-1.26488e-08
-2.5008e-08
-1.73647e-08
-1.20675e-08
-7.15997e-09
-1.26487e-08
-1.26487e-08
-1.26489e-08
-1.26487e-08
-1.26489e-08
-1.26487e-08
-2.50631e-08
-1.55543e-08
-8.91497e-09
-1.26488e-08
-1.26487e-08
-1.26487e-08
-1.26487e-08
-1.26486e-08
-1.26487e-08
-2.42523e-08
-2.14648e-08
-1.26392e-08
-1.35826e-08
-1.2649e-08
-1.26491e-08
-1.26501e-08
-1.2649e-08
-3.01191e-08
-1.94559e-08
-1.61083e-08
-1.22269e-08
-1.45292e-08
-2.19046e-08
-2.50152e-08
-2.50703e-08
-2.4267e-08
-1.9466e-08
-2.16462e-08
-1.77199e-08
-1.73669e-08
-1.55571e-08
-2.14707e-08
-1.61078e-08
-1.08097e-08
-1.13278e-08
-8.83567e-09
-7.86272e-09
-6.96792e-09
-6.42231e-09
-8.17682e-09
-1.19017e-08
-1.14872e-08
-8.83121e-09
-2.88705e-09
-1.191e-08
-1.19101e-08
-1.191e-08
-1.19102e-08
-1.28394e-08
-1.37884e-08
-7.87175e-09
-1.191e-08
-1.19098e-08
-1.191e-08
-1.19099e-08
-1.19099e-08
-1.191e-08
-2.11643e-08
-1.69691e-08
-1.08115e-08
-6.96971e-09
-1.19098e-08
-1.19098e-08
-1.19099e-08
-1.19099e-08
-1.19099e-08
-1.19099e-08
-2.42692e-08
-1.66258e-08
-1.13282e-08
-6.42196e-09
-1.19098e-08
-1.19097e-08
-1.19098e-08
-1.19098e-08
-1.19098e-08
-1.19098e-08
-2.43242e-08
-1.48154e-08
-8.17564e-09
-1.19098e-08
-1.19097e-08
-1.19098e-08
-1.19098e-08
-1.19097e-08
-1.19098e-08
-2.35133e-08
-2.07257e-08
-1.18999e-08
-1.28433e-08
-1.19096e-08
-1.19097e-08
-1.19097e-08
-1.19098e-08
-2.938e-08
-1.87168e-08
-1.53692e-08
-1.14876e-08
-1.37901e-08
-2.11672e-08
-2.42772e-08
-2.43329e-08
-2.35285e-08
-1.8727e-08
-2.09071e-08
-1.69803e-08
-1.66277e-08
-1.48182e-08
-2.07316e-08
-1.53686e-08
-1.00712e-08
-1.05894e-08
-8.09728e-09
-7.12431e-09
-6.22946e-09
-5.68387e-09
-7.43868e-09
-1.11622e-08
-1.0748e-08
-8.0925e-09
-2.14729e-09
-1.11713e-08
-1.11714e-08
-1.11713e-08
-1.11714e-08
-1.21043e-08
-1.30497e-08
-7.13319e-09
-1.11716e-08
-1.11711e-08
-1.11713e-08
-1.11712e-08
-1.11712e-08
-1.11711e-08
-2.04253e-08
-1.62302e-08
-1.00729e-08
-6.23113e-09
-1.11712e-08
-1.11712e-08
-1.11712e-08
-1.11711e-08
-1.11711e-08
-1.11711e-08
-2.35302e-08
-1.58868e-08
-1.05896e-08
-5.68345e-09
-1.11714e-08
-1.11711e-08
-1.11712e-08
-1.11711e-08
-1.1171e-08
-1.1171e-08
-2.35852e-08
-1.40764e-08
-7.43714e-09
-1.11713e-08
-1.1171e-08
-1.11711e-08
-1.1171e-08
-1.1171e-08
-1.11711e-08
-2.27744e-08
-1.99867e-08
-1.11612e-08
-1.21047e-08
-1.1171e-08
-1.1171e-08
-1.1171e-08
-1.1171e-08
-2.86412e-08
-1.7978e-08
-1.46302e-08
-1.07488e-08
-1.30513e-08
-2.04284e-08
-2.35383e-08
-2.3594e-08
-2.27896e-08
-1.79882e-08
-2.01682e-08
-1.62414e-08
-1.58887e-08
-1.40794e-08
-1.99928e-08
-1.46299e-08
-9.33246e-09
-9.85047e-09
-7.35809e-09
-6.38589e-09
-5.49069e-09
-4.94484e-09
-6.69916e-09
-1.0424e-08
-1.00097e-08
-7.35395e-09
-1.40985e-09
-1.04326e-08
-1.04327e-08
-1.04325e-08
-1.04327e-08
-1.1365e-08
-1.23111e-08
-6.39471e-09
-1.04327e-08
-1.04324e-08
-1.04323e-08
-1.04324e-08
-1.04324e-08
-1.04321e-08
-1.96867e-08
-1.54914e-08
-9.33471e-09
-5.49282e-09