/*--------------------------------*- C++ -*----------------------------------*\
| =========                 |                                                 |
| \\      /  F ield         | OpenFOAM: The Open Source CFD Toolbox           |
|  \\    /   O peration     | Version:  v2012                                 |
|   \\  /    A nd           | Website:  www.openfoam.com                      |
|    \\/     M anipulation  |                                                 |
\*---------------------------------------------------------------------------*/
FoamFile
{
    version     2.0;
    format      ascii;
    class       volScalarField;
    location    "0.155";
    object      p;
}
// * * * * * * * * * * * * * * * * * * * * * * * * * * * * * * * * * * * * * //

dimensions      [0 2 -2 0 0 0 0];


internalField   nonuniform List<scalar> 
189320
(
-9.76532e-07
-9.70495e-07
-9.85091e-07
-9.86422e-07
-9.94104e-07
-9.9653e-07
-9.90931e-07
-9.89647e-07
-9.89012e-07
-9.85115e-07
-9.95542e-07
-9.95893e-07
-9.98699e-07
-9.99313e-07
-9.97353e-07
-9.95595e-07
-9.8869e-07
-9.86454e-07
-9.95897e-07
-1.00011e-06
-1.00197e-06
-1.00234e-06
-1.00116e-06
-9.98039e-07
-9.95337e-07
-9.87214e-07
-9.76789e-07
-9.94158e-07
-9.98714e-07
-1.00198e-06
-1.00318e-06
-1.00337e-06
-1.00273e-06
-1.00067e-06
-9.95686e-07
-9.87476e-07
-9.70681e-07
-9.96577e-07
-9.99325e-07
-1.00234e-06
-1.00336e-06
-1.00354e-06
-1.00301e-06
-1.00125e-06
-9.9657e-07
-9.89121e-07
-9.90957e-07
-9.97357e-07
-1.00115e-06
-1.00272e-06
-1.00301e-06
-1.0021e-06
-9.9956e-07
-9.95311e-07
-9.76228e-07
-9.89667e-07
-9.95586e-07
-9.98016e-07
-1.00064e-06
-1.00123e-06
-9.99549e-07
-9.95875e-07
-9.95044e-07
-9.87169e-07
-9.89005e-07
-9.88655e-07
-9.95279e-07
-9.95619e-07
-9.96523e-07
-9.95289e-07
-9.95028e-07
-9.95363e-07
-9.87147e-07
-9.87367e-07
-9.88974e-07
-9.76163e-07
-9.87116e-07
-9.97133e-07
-9.97459e-07
-9.93977e-07
-9.91527e-07
-9.91329e-07
-9.90235e-07
-9.91429e-07
-9.99303e-07
-9.97669e-07
-9.93977e-07
-9.84033e-07
-9.95505e-07
-9.98026e-07
-9.98029e-07
-9.95541e-07
-9.98036e-07
-1.00024e-06
-9.91532e-07
-9.95524e-07
-1.00357e-06
-1.00355e-06
-1.00356e-06
-1.00357e-06
-9.95498e-07
-1.01104e-06
-1.00575e-06
-9.97128e-07
-9.91329e-07
-9.98024e-07
-1.00356e-06
-1.00324e-06
-1.00325e-06
-1.00356e-06
-9.98059e-07
-1.01173e-06
-1.00612e-06
-9.97453e-07
-9.90219e-07
-9.98012e-07
-1.00356e-06
-1.00325e-06
-1.00325e-06
-1.00355e-06
-9.98043e-07
-1.0121e-06
-1.00124e-06
-9.91418e-07
-9.95535e-07
-1.00357e-06
-1.00355e-06
-1.00356e-06
-1.00357e-06
-9.9551e-07
-1.01235e-06
-1.01073e-06
-9.99279e-07
-9.9802e-07
-9.95474e-07
-9.98013e-07
-9.98026e-07
-9.95521e-07
-1.0251e-06
-1.00776e-06
-1.00256e-06
-9.97648e-07
-1.00023e-06
-1.01102e-06
-1.01172e-06
-1.0121e-06
-1.01239e-06
-1.0078e-06
-1.01132e-06
-1.00573e-06
-1.0061e-06
-1.00123e-06
-1.01073e-06
-1.00254e-06
-9.88406e-07
-9.89039e-07
-9.85049e-07
-9.8176e-07
-9.8072e-07
-9.79541e-07
-9.81794e-07
-9.90321e-07
-9.89087e-07
-9.85056e-07
-9.73519e-07
-9.84649e-07
-9.85117e-07
-9.85127e-07
-9.84659e-07
-9.89086e-07
-9.90303e-07
-9.81766e-07
-9.84649e-07
-9.885e-07
-9.88753e-07
-9.88777e-07
-9.885e-07
-9.84653e-07
-1.00227e-06
-9.97579e-07
-9.88404e-07
-9.80722e-07
-9.85114e-07
-9.8877e-07
-9.8886e-07
-9.88875e-07
-9.88766e-07
-9.85137e-07
-1.00718e-06
-9.97215e-07
-9.89033e-07
-9.79537e-07
-9.85109e-07
-9.88774e-07
-9.8887e-07
-9.88874e-07
-9.88762e-07
-9.85133e-07
-1.00757e-06
-9.92302e-07
-9.81794e-07
-9.84652e-07
-9.885e-07
-9.8876e-07
-9.88781e-07
-9.88501e-07
-9.84653e-07
-1.00634e-06
-1.00313e-06
-9.90299e-07
-9.89077e-07
-9.84636e-07
-9.85116e-07
-9.85124e-07
-9.8465e-07
-1.01425e-06
-9.98516e-07
-9.94719e-07
-9.8907e-07
-9.90289e-07
-1.00227e-06
-1.00715e-06
-1.00756e-06
-1.00635e-06
-9.98551e-07
-1.00307e-06
-9.97563e-07
-9.97204e-07
-9.9229e-07
-1.00312e-06
-9.9472e-07
-9.77764e-07
-9.78376e-07
-9.74702e-07
-9.71047e-07
-9.6974e-07
-9.68445e-07
-9.71038e-07
-9.79825e-07
-9.78816e-07
-9.74695e-07
-9.62404e-07
-9.73731e-07
-9.73828e-07
-9.73834e-07
-9.73738e-07
-9.78887e-07
-9.80002e-07
-9.71054e-07
-9.73733e-07
-9.7507e-07
-9.75234e-07
-9.75249e-07
-9.75073e-07
-9.73733e-07
-9.91899e-07
-9.87103e-07
-9.77775e-07
-9.69755e-07
-9.7382e-07
-9.75241e-07
-9.75378e-07
-9.75387e-07
-9.75245e-07
-9.73838e-07
-9.96854e-07
-9.86598e-07
-9.78389e-07
-9.68455e-07
-9.73822e-07
-9.75248e-07
-9.75389e-07
-9.7539e-07
-9.75242e-07
-9.73834e-07
-9.97171e-07
-9.81561e-07
-9.71046e-07
-9.73727e-07
-9.75073e-07
-9.7524e-07
-9.75252e-07
-9.75074e-07
-9.73742e-07
-9.95781e-07
-9.92593e-07
-9.79829e-07
-9.78883e-07
-9.73727e-07
-9.7382e-07
-9.73828e-07
-9.73737e-07
-1.0044e-06
-9.87883e-07
-9.84389e-07
-9.78811e-07
-9.80004e-07
-9.91888e-07
-9.96844e-07
-9.9717e-07
-9.95806e-07
-9.87912e-07
-9.92903e-07
-9.87096e-07
-9.86595e-07
-9.81545e-07
-9.92597e-07
-9.8439e-07
-9.66706e-07
-9.67313e-07
-9.63735e-07
-9.59952e-07
-9.58538e-07
-9.57194e-07
-9.59962e-07
-9.68818e-07
-9.67868e-07
-9.63743e-07
-9.51134e-07
-9.62555e-07
-9.62577e-07
-9.62579e-07
-9.62556e-07
-9.67957e-07
-9.69055e-07
-9.59953e-07
-9.62554e-07
-9.63037e-07
-9.63085e-07
-9.63091e-07
-9.63039e-07
-9.62561e-07
-9.80855e-07
-9.76116e-07
-9.66713e-07
-9.58538e-07
-9.62579e-07
-9.63087e-07
-9.63134e-07
-9.6314e-07
-9.63088e-07
-9.62583e-07
-9.85847e-07
-9.75545e-07
-9.67319e-07
-9.57195e-07
-9.62578e-07
-9.63087e-07
-9.63138e-07
-9.63142e-07
-9.63086e-07
-9.62582e-07
-9.86123e-07
-9.70474e-07
-9.59957e-07
-9.62555e-07
-9.63037e-07
-9.63087e-07
-9.63094e-07
-9.6304e-07
-9.62558e-07
-9.84583e-07
-9.81588e-07
-9.68821e-07
-9.67954e-07
-9.62555e-07
-9.62577e-07
-9.62579e-07
-9.62556e-07
-9.93591e-07
-9.76841e-07
-9.73442e-07
-9.67872e-07
-9.69057e-07
-9.80848e-07
-9.85838e-07
-9.86126e-07
-9.84597e-07
-9.76866e-07
-9.82007e-07
-9.76104e-07
-9.7554e-07
-9.70473e-07
-9.81581e-07
-9.73438e-07
-9.55493e-07
-9.56098e-07
-9.52553e-07
-9.48719e-07
-9.47256e-07
-9.45896e-07
-9.48741e-07
-9.5763e-07
-9.56703e-07
-9.52555e-07
-9.39823e-07
-9.51289e-07
-9.51293e-07
-9.51293e-07
-9.51292e-07
-9.56777e-07
-9.57887e-07
-9.4873e-07
-9.51295e-07
-9.51469e-07
-9.51491e-07
-9.5149e-07
-9.5147e-07
-9.51296e-07
-9.69638e-07
-9.64919e-07
-9.55498e-07
-9.47256e-07
-9.51296e-07
-9.5149e-07
-9.51504e-07
-9.51503e-07
-9.51491e-07
-9.51296e-07
-9.74625e-07
-9.64335e-07
-9.561e-07
-9.45898e-07
-9.51293e-07
-9.5149e-07
-9.51504e-07
-9.51502e-07
-9.51489e-07
-9.51296e-07
-9.74894e-07
-9.59252e-07
-9.48742e-07
-9.51294e-07
-9.51468e-07
-9.51491e-07
-9.5149e-07
-9.51468e-07
-9.51295e-07
-9.73317e-07
-9.7039e-07
-9.57634e-07
-9.56782e-07
-9.51292e-07
-9.51295e-07
-9.51297e-07
-9.51295e-07
-9.82484e-07
-9.65643e-07
-9.62262e-07
-9.56709e-07
-9.57885e-07
-9.69633e-07
-9.74623e-07
-9.749e-07
-9.73335e-07
-9.65674e-07
-9.70863e-07
-9.64923e-07
-9.64331e-07
-9.59255e-07
-9.70388e-07
-9.62266e-07
-9.44224e-07
-9.44827e-07
-9.41302e-07
-9.37442e-07
-9.3594e-07
-9.3459e-07
-9.37479e-07
-9.46369e-07
-9.4545e-07
-9.413e-07
-9.2852e-07
-9.40013e-07
-9.40001e-07
-9.40003e-07
-9.40012e-07
-9.45521e-07
-9.46638e-07
-9.37449e-07
-9.40005e-07
-9.4007e-07
-9.40076e-07
-9.40077e-07
-9.4007e-07
-9.40002e-07
-9.58374e-07
-9.53664e-07
-9.44228e-07
-9.35942e-07
-9.4e-07
-9.40079e-07
-9.40083e-07
-9.40083e-07
-9.4008e-07
-9.40006e-07
-9.63351e-07
-9.53067e-07
-9.44829e-07
-9.34593e-07
-9.40003e-07
-9.4008e-07
-9.40085e-07
-9.40082e-07
-9.4008e-07
-9.40005e-07
-9.63614e-07
-9.47982e-07
-9.37483e-07
-9.40005e-07
-9.40069e-07
-9.40078e-07
-9.40076e-07
-9.40068e-07
-9.40006e-07
-9.62043e-07
-9.5914e-07
-9.46372e-07
-9.45524e-07
-9.40007e-07
-9.40005e-07
-9.40006e-07
-9.40009e-07
-9.71265e-07
-9.54388e-07
-9.51013e-07
-9.45456e-07
-9.46637e-07
-9.58373e-07
-9.63356e-07
-9.63609e-07
-9.6205e-07
-9.54407e-07
-9.59614e-07
-9.53671e-07
-9.53065e-07
-9.47977e-07
-9.59141e-07
-9.51011e-07
-9.32937e-07
-9.3354e-07
-9.30019e-07
-9.26154e-07
-9.24641e-07
-9.23296e-07
-9.262e-07
-9.35087e-07
-9.34172e-07
-9.30017e-07
-9.17216e-07
-9.28712e-07
-9.28717e-07
-9.28718e-07
-9.28713e-07
-9.34238e-07
-9.35358e-07
-9.2616e-07
-9.28717e-07
-9.28736e-07
-9.2874e-07
-9.28741e-07
-9.28732e-07
-9.28715e-07
-9.47082e-07
-9.42382e-07
-9.3294e-07
-9.24645e-07
-9.28718e-07
-9.28739e-07
-9.28743e-07
-9.28745e-07
-9.28737e-07
-9.28716e-07
-9.5206e-07
-9.4178e-07
-9.33541e-07
-9.23296e-07
-9.28717e-07
-9.2874e-07
-9.28743e-07
-9.28744e-07
-9.28739e-07
-9.28715e-07
-9.52316e-07
-9.36691e-07
-9.26199e-07
-9.28715e-07
-9.28735e-07
-9.28738e-07
-9.28739e-07
-9.28735e-07
-9.28715e-07
-9.50736e-07
-9.47857e-07
-9.35089e-07
-9.34241e-07
-9.28715e-07
-9.28717e-07
-9.28716e-07
-9.28713e-07
-9.60004e-07
-9.43113e-07
-9.39733e-07
-9.34177e-07
-9.35358e-07
-9.47085e-07
-9.52062e-07
-9.52316e-07
-9.50753e-07
-9.43132e-07
-9.48335e-07
-9.42385e-07
-9.41779e-07
-9.36686e-07
-9.47858e-07
-9.39739e-07
-9.21648e-07
-9.2225e-07
-9.18732e-07
-9.14866e-07
-9.13348e-07
-9.11999e-07
-9.14907e-07
-9.23798e-07
-9.22885e-07
-9.1873e-07
-9.05919e-07
-9.17421e-07
-9.1742e-07
-9.17419e-07
-9.17418e-07
-9.22951e-07
-9.24073e-07
-9.14868e-07
-9.17416e-07
-9.17433e-07
-9.17436e-07
-9.17434e-07
-9.17432e-07
-9.17425e-07
-9.358e-07
-9.31095e-07
-9.21651e-07
-9.1335e-07
-9.17421e-07
-9.17436e-07
-9.17436e-07
-9.17436e-07
-9.17433e-07
-9.17425e-07
-9.40776e-07
-9.30492e-07
-9.22251e-07
-9.11999e-07
-9.1742e-07
-9.17431e-07
-9.17432e-07
-9.17435e-07
-9.17433e-07
-9.17423e-07
-9.41029e-07
-9.25405e-07
-9.14909e-07
-9.17423e-07
-9.17438e-07
-9.1744e-07
-9.17437e-07
-9.17433e-07
-9.1742e-07
-9.39448e-07
-9.36566e-07
-9.23797e-07
-9.22955e-07
-9.17416e-07
-9.17417e-07
-9.17419e-07
-9.17416e-07
-9.48717e-07
-9.31824e-07
-9.28443e-07
-9.2289e-07
-9.24072e-07
-9.358e-07
-9.40775e-07
-9.41028e-07
-9.39465e-07
-9.31844e-07
-9.37053e-07
-9.31097e-07
-9.30489e-07
-9.25398e-07
-9.36568e-07
-9.28447e-07
-9.10358e-07
-9.1096e-07
-9.07442e-07
-9.03571e-07
-9.02052e-07
-9.00704e-07
-9.03619e-07
-9.1251e-07
-9.11597e-07
-9.07441e-07
-8.94624e-07
-9.06128e-07
-9.06128e-07
-9.06129e-07
-9.0613e-07
-9.11664e-07
-9.12784e-07
-9.03576e-07
-9.06129e-07
-9.06134e-07
-9.06135e-07
-9.06134e-07
-9.06133e-07
-9.06129e-07
-9.24508e-07
-9.19807e-07
-9.10361e-07
-9.02055e-07
-9.06128e-07
-9.06132e-07
-9.06135e-07
-9.06132e-07
-9.06135e-07
-9.06129e-07
-9.29485e-07
-9.19203e-07
-9.10961e-07
-9.00704e-07
-9.06129e-07
-9.06135e-07
-9.06136e-07
-9.06133e-07
-9.06137e-07
-9.0613e-07
-9.29738e-07
-9.14114e-07
-9.03619e-07
-9.06125e-07
-9.06132e-07
-9.06134e-07
-9.06133e-07
-9.06133e-07
-9.06126e-07
-9.28157e-07
-9.25279e-07
-9.12509e-07
-9.1167e-07
-9.06129e-07
-9.06129e-07
-9.06129e-07
-9.06129e-07
-9.3743e-07
-9.20537e-07
-9.17156e-07
-9.11601e-07
-9.12784e-07
-9.24509e-07
-9.29489e-07
-9.29738e-07
-9.28175e-07
-9.20557e-07
-9.25766e-07
-9.19809e-07
-9.192e-07
-9.14109e-07
-9.25282e-07
-9.17162e-07
-8.99064e-07
-8.99667e-07
-8.96148e-07
-8.9228e-07
-8.90758e-07
-8.89412e-07
-8.92328e-07
-9.01214e-07
-9.00304e-07
-8.96147e-07
-8.83335e-07
-8.94838e-07
-8.94838e-07
-8.94838e-07
-8.94838e-07
-9.00371e-07
-9.01491e-07
-8.92284e-07
-8.94838e-07
-8.94837e-07
-8.94837e-07
-8.94837e-07
-8.94836e-07
-8.94838e-07
-9.13213e-07
-9.08513e-07
-8.99068e-07
-8.90762e-07
-8.94837e-07
-8.94837e-07
-8.94838e-07
-8.94838e-07
-8.94837e-07
-8.94837e-07
-9.18189e-07
-9.07909e-07
-8.99668e-07
-8.89412e-07
-8.94837e-07
-8.94838e-07
-8.94838e-07
-8.94838e-07
-8.94837e-07
-8.94837e-07
-9.18441e-07
-9.02819e-07
-8.92329e-07
-8.94837e-07
-8.94837e-07
-8.94837e-07
-8.94837e-07
-8.94836e-07
-8.94838e-07
-9.16862e-07
-9.13986e-07
-9.01216e-07
-9.00378e-07
-8.94838e-07
-8.94837e-07
-8.94837e-07
-8.94838e-07
-9.26135e-07
-9.09242e-07
-9.05863e-07
-9.00308e-07
-9.01492e-07
-9.13215e-07
-9.18195e-07
-9.18443e-07
-9.1688e-07
-9.09262e-07
-9.14472e-07
-9.08517e-07
-9.07908e-07
-9.02816e-07
-9.13989e-07
-9.05869e-07
-8.87773e-07
-8.88375e-07
-8.84866e-07
-8.80987e-07
-8.79467e-07
-8.7812e-07
-8.81039e-07
-8.8992e-07
-8.89014e-07
-8.84856e-07
-8.72041e-07
-8.83544e-07
-8.83544e-07
-8.83544e-07
-8.83544e-07
-8.8908e-07
-8.902e-07
-8.80992e-07
-8.83544e-07
-8.83545e-07
-8.83545e-07
-8.83545e-07
-8.83544e-07
-8.83544e-07
-9.01922e-07
-8.97221e-07
-8.87775e-07
-8.79468e-07
-8.83544e-07
-8.83545e-07
-8.83544e-07
-8.83544e-07
-8.83544e-07
-8.83544e-07
-9.06895e-07
-8.96616e-07
-8.88375e-07
-8.78118e-07
-8.83544e-07
-8.83544e-07
-8.83544e-07
-8.83544e-07
-8.83544e-07
-8.83544e-07
-9.07148e-07
-8.91526e-07
-8.81037e-07
-8.83544e-07
-8.83544e-07
-8.83544e-07
-8.83544e-07
-8.83544e-07
-8.83544e-07
-9.0557e-07
-9.02693e-07
-8.89924e-07
-8.89087e-07
-8.83544e-07
-8.83544e-07
-8.83544e-07
-8.83544e-07
-9.14845e-07
-8.97952e-07
-8.94571e-07
-8.89017e-07
-8.902e-07
-9.01925e-07
-9.06901e-07
-9.07151e-07
-9.05589e-07
-8.97971e-07
-9.03181e-07
-8.97225e-07
-8.96615e-07
-8.91523e-07
-9.02697e-07
-8.94577e-07
-8.76479e-07
-8.77083e-07
-8.73567e-07
-8.69693e-07
-8.68172e-07
-8.66827e-07
-8.6975e-07
-8.78633e-07
-8.77711e-07
-8.73562e-07
-8.60745e-07
-8.7225e-07
-8.7225e-07
-8.7225e-07
-8.7225e-07
-8.77787e-07
-8.78901e-07
-8.69698e-07
-8.7225e-07
-8.72251e-07
-8.72251e-07
-8.72251e-07
-8.72251e-07
-8.7225e-07
-8.90627e-07
-8.85926e-07
-8.76482e-07
-8.68174e-07
-8.7225e-07
-8.72251e-07
-8.72251e-07
-8.72251e-07
-8.72251e-07
-8.7225e-07
-8.95601e-07
-8.85322e-07
-8.77082e-07
-8.66824e-07
-8.7225e-07
-8.72251e-07
-8.72251e-07
-8.72251e-07
-8.72251e-07
-8.7225e-07
-8.95855e-07
-8.80233e-07
-8.69744e-07
-8.7225e-07
-8.72251e-07
-8.7225e-07
-8.7225e-07
-8.72251e-07
-8.7225e-07
-8.94277e-07
-8.914e-07
-8.78631e-07
-8.77793e-07
-8.7225e-07
-8.7225e-07
-8.7225e-07
-8.7225e-07
-9.03552e-07
-8.86658e-07
-8.83277e-07
-8.77723e-07
-8.78907e-07
-8.90631e-07
-8.95609e-07
-8.9586e-07
-8.94296e-07
-8.86678e-07
-8.91888e-07
-8.85932e-07
-8.85321e-07
-8.80231e-07
-8.91404e-07
-8.83284e-07
-8.65186e-07
-8.65789e-07
-8.62277e-07
-8.584e-07
-8.5688e-07
-8.55534e-07
-8.58456e-07
-8.67339e-07
-8.66419e-07
-8.62269e-07
-8.49452e-07
-8.60957e-07
-8.60957e-07
-8.60957e-07
-8.60957e-07
-8.66495e-07
-8.67609e-07
-8.58405e-07
-8.60957e-07
-8.60957e-07
-8.60957e-07
-8.60957e-07
-8.60957e-07
-8.60957e-07
-8.79334e-07
-8.74633e-07
-8.65189e-07
-8.56881e-07
-8.60957e-07
-8.60957e-07
-8.60957e-07
-8.60957e-07
-8.60957e-07
-8.60957e-07
-8.84308e-07
-8.74029e-07
-8.65789e-07
-8.55531e-07
-8.60957e-07
-8.60957e-07
-8.60957e-07
-8.60957e-07
-8.60957e-07
-8.60957e-07
-8.84561e-07
-8.6894e-07
-8.5845e-07
-8.60957e-07
-8.60957e-07
-8.60957e-07
-8.60957e-07
-8.60957e-07
-8.60957e-07
-8.82984e-07
-8.80107e-07
-8.67337e-07
-8.665e-07
-8.60957e-07
-8.60957e-07
-8.60957e-07
-8.60957e-07
-8.92259e-07
-8.75365e-07
-8.71984e-07
-8.6643e-07
-8.67614e-07
-8.79338e-07
-8.84315e-07
-8.84567e-07
-8.83002e-07
-8.75385e-07
-8.80595e-07
-8.74639e-07
-8.74029e-07
-8.68937e-07
-8.80111e-07
-8.71991e-07
-8.53892e-07
-8.54495e-07
-8.50983e-07
-8.47107e-07
-8.45586e-07
-8.4424e-07
-8.47163e-07
-8.56044e-07
-8.55126e-07
-8.50976e-07
-8.38159e-07
-8.49664e-07
-8.49664e-07
-8.49664e-07
-8.49664e-07
-8.552e-07
-8.56316e-07
-8.47112e-07
-8.49664e-07
-8.49664e-07
-8.49664e-07
-8.49664e-07
-8.49664e-07
-8.49664e-07
-8.68041e-07
-8.63341e-07
-8.53896e-07
-8.45588e-07
-8.49664e-07
-8.49664e-07
-8.49664e-07
-8.49664e-07
-8.49664e-07
-8.49664e-07
-8.73014e-07
-8.62736e-07
-8.54496e-07
-8.44238e-07
-8.49664e-07
-8.49664e-07
-8.49664e-07
-8.49664e-07
-8.49664e-07
-8.49664e-07
-8.73268e-07
-8.57647e-07
-8.47158e-07
-8.49664e-07
-8.49664e-07
-8.49664e-07
-8.49664e-07
-8.49664e-07
-8.49664e-07
-8.71691e-07
-8.68814e-07
-8.56045e-07
-8.55207e-07
-8.49664e-07
-8.49664e-07
-8.49664e-07
-8.49664e-07
-8.80966e-07
-8.64072e-07
-8.60691e-07
-8.55137e-07
-8.56321e-07
-8.68044e-07
-8.73021e-07
-8.73273e-07
-8.71709e-07
-8.64091e-07
-8.69302e-07
-8.63346e-07
-8.62736e-07
-8.57644e-07
-8.68818e-07
-8.60698e-07
-8.42599e-07
-8.43202e-07
-8.39689e-07
-8.35813e-07
-8.34292e-07
-8.32947e-07
-8.35869e-07
-8.44751e-07
-8.43834e-07
-8.39682e-07
-8.26867e-07
-8.3837e-07
-8.3837e-07
-8.3837e-07
-8.3837e-07
-8.43906e-07
-8.45023e-07
-8.35818e-07
-8.3837e-07
-8.3837e-07
-8.3837e-07
-8.3837e-07
-8.3837e-07
-8.3837e-07
-8.56747e-07
-8.52047e-07
-8.42602e-07
-8.34294e-07
-8.3837e-07
-8.3837e-07
-8.3837e-07
-8.3837e-07
-8.3837e-07
-8.3837e-07
-8.61721e-07
-8.51442e-07
-8.43202e-07
-8.32944e-07
-8.3837e-07
-8.3837e-07
-8.3837e-07
-8.3837e-07
-8.3837e-07
-8.3837e-07
-8.61974e-07
-8.46353e-07
-8.35864e-07
-8.3837e-07
-8.3837e-07
-8.3837e-07
-8.3837e-07
-8.3837e-07
-8.3837e-07
-8.60397e-07
-8.5752e-07
-8.44751e-07
-8.43913e-07
-8.3837e-07
-8.3837e-07
-8.3837e-07
-8.3837e-07
-8.69672e-07
-8.52778e-07
-8.49397e-07
-8.43843e-07
-8.45027e-07
-8.56751e-07
-8.61728e-07
-8.61981e-07
-8.60416e-07
-8.52798e-07
-8.58008e-07
-8.52052e-07
-8.51443e-07
-8.4635e-07
-8.57524e-07
-8.49404e-07
-8.31305e-07
-8.31907e-07
-8.28395e-07
-8.24518e-07
-8.22998e-07
-8.21652e-07
-8.24575e-07
-8.33454e-07
-8.32539e-07
-8.28387e-07
-8.15572e-07
-8.27076e-07
-8.27075e-07
-8.27075e-07
-8.27076e-07
-8.32612e-07
-8.33729e-07
-8.24523e-07
-8.27076e-07
-8.27076e-07
-8.27076e-07
-8.27076e-07
-8.27076e-07
-8.27076e-07
-8.45453e-07
-8.40753e-07
-8.31307e-07
-8.23e-07
-8.27076e-07
-8.27076e-07
-8.27076e-07
-8.27076e-07
-8.27076e-07
-8.27076e-07
-8.50427e-07
-8.40148e-07
-8.31907e-07
-8.2165e-07
-8.27076e-07
-8.27076e-07
-8.27076e-07
-8.27076e-07
-8.27076e-07
-8.27076e-07
-8.5068e-07
-8.35059e-07
-8.24569e-07
-8.27076e-07
-8.27076e-07
-8.27076e-07
-8.27076e-07
-8.27076e-07
-8.27076e-07
-8.49103e-07
-8.46226e-07
-8.33456e-07
-8.32619e-07
-8.27076e-07
-8.27076e-07
-8.27076e-07
-8.27076e-07
-8.58378e-07
-8.41484e-07
-8.38103e-07
-8.32549e-07
-8.33732e-07
-8.45457e-07
-8.50434e-07
-8.50687e-07
-8.49122e-07
-8.41504e-07
-8.46714e-07
-8.40758e-07
-8.40148e-07
-8.35055e-07
-8.46231e-07
-8.3811e-07
-8.20011e-07
-8.20614e-07
-8.17102e-07
-8.13225e-07
-8.11705e-07
-8.10359e-07
-8.13282e-07
-8.22162e-07
-8.21246e-07
-8.17094e-07
-8.04279e-07
-8.15783e-07
-8.15783e-07
-8.15783e-07
-8.15783e-07
-8.2132e-07
-8.22435e-07
-8.1323e-07
-8.15783e-07
-8.15783e-07
-8.15783e-07
-8.15783e-07
-8.15783e-07
-8.15784e-07
-8.34162e-07
-8.29459e-07
-8.20014e-07
-8.11707e-07
-8.15783e-07
-8.15783e-07
-8.15783e-07
-8.15783e-07
-8.15783e-07
-8.15784e-07
-8.39134e-07
-8.28855e-07
-8.20614e-07
-8.10357e-07
-8.15783e-07
-8.15783e-07
-8.15783e-07
-8.15783e-07
-8.15784e-07
-8.15784e-07
-8.39387e-07
-8.23766e-07
-8.13276e-07
-8.15783e-07
-8.15783e-07
-8.15783e-07
-8.15783e-07
-8.15784e-07
-8.15784e-07
-8.3781e-07
-8.34933e-07
-8.22163e-07
-8.21326e-07
-8.15783e-07
-8.15783e-07
-8.15783e-07
-8.15783e-07
-8.47085e-07
-8.30191e-07
-8.2681e-07
-8.21256e-07
-8.22439e-07
-8.34164e-07
-8.3914e-07
-8.39391e-07
-8.37829e-07
-8.30211e-07
-8.35421e-07
-8.29464e-07
-8.28855e-07
-8.23762e-07
-8.34937e-07
-8.26817e-07
-8.0872e-07
-8.09322e-07
-8.0581e-07
-8.01933e-07
-8.00413e-07
-7.99067e-07
-8.01989e-07
-8.10872e-07
-8.09955e-07
-8.05802e-07
-7.92987e-07
-8.04491e-07
-8.04491e-07
-8.04491e-07
-8.04491e-07
-8.10028e-07
-8.11144e-07
-8.01938e-07
-8.04491e-07
-8.04491e-07
-8.04491e-07
-8.04491e-07
-8.04491e-07
-8.04491e-07
-8.2287e-07
-8.18168e-07
-8.08722e-07
-8.00415e-07
-8.04491e-07
-8.04491e-07
-8.04491e-07
-8.04491e-07
-8.04491e-07
-8.04492e-07
-8.27842e-07
-8.17563e-07
-8.09322e-07
-7.99065e-07
-8.04491e-07
-8.04491e-07
-8.04491e-07
-8.04491e-07
-8.04491e-07
-8.04491e-07
-8.28095e-07
-8.12474e-07
-8.01984e-07
-8.04491e-07
-8.04491e-07
-8.04491e-07
-8.04491e-07
-8.04491e-07
-8.04492e-07
-8.26518e-07
-8.23641e-07
-8.10871e-07
-8.10034e-07
-8.04492e-07
-8.04491e-07
-8.04492e-07
-8.04492e-07
-8.35793e-07
-8.18899e-07
-8.15518e-07
-8.09964e-07
-8.11148e-07
-8.22872e-07
-8.27849e-07
-8.28101e-07
-8.26537e-07
-8.18919e-07
-8.24129e-07
-8.18173e-07
-8.17564e-07
-8.12474e-07
-8.23645e-07
-8.15525e-07
-7.97427e-07
-7.9803e-07
-7.94518e-07
-7.90641e-07
-7.8912e-07
-7.87775e-07
-7.90698e-07
-7.99582e-07
-7.98661e-07
-7.9451e-07
-7.81695e-07
-7.93199e-07
-7.93199e-07
-7.93199e-07
-7.93199e-07
-7.98736e-07
-7.99851e-07
-7.90646e-07
-7.93199e-07
-7.93199e-07
-7.93199e-07
-7.93199e-07
-7.93199e-07
-7.93199e-07
-8.11578e-07
-8.06876e-07
-7.9743e-07
-7.89123e-07
-7.93199e-07
-7.93199e-07
-7.93199e-07
-7.93199e-07
-7.93199e-07
-7.93199e-07
-8.1655e-07
-8.06271e-07
-7.9803e-07
-7.87773e-07
-7.93199e-07
-7.93199e-07
-7.93199e-07
-7.93199e-07
-7.93199e-07
-7.93199e-07
-8.16803e-07
-8.01182e-07
-7.90692e-07
-7.93199e-07
-7.93199e-07
-7.93199e-07
-7.93199e-07
-7.93199e-07
-7.93199e-07
-8.15226e-07
-8.12349e-07
-7.99579e-07
-7.98742e-07
-7.93199e-07
-7.93199e-07
-7.93199e-07
-7.93199e-07
-8.24501e-07
-8.07607e-07
-8.04226e-07
-7.98672e-07
-7.99855e-07
-8.11579e-07
-8.16554e-07
-8.16805e-07
-8.15244e-07
-8.07626e-07
-8.12836e-07
-8.06881e-07
-8.06272e-07
-8.01179e-07
-8.12356e-07
-8.04232e-07
-7.86134e-07
-7.86736e-07
-7.83225e-07
-7.79348e-07
-7.77827e-07
-7.7648e-07
-7.79398e-07
-7.88285e-07
-7.87376e-07
-7.83217e-07
-7.70402e-07
-7.81906e-07
-7.81906e-07
-7.81906e-07
-7.81906e-07
-7.87441e-07
-7.88563e-07
-7.79353e-07
-7.81906e-07
-7.81906e-07
-7.81906e-07
-7.81906e-07
-7.81906e-07
-7.81906e-07
-8.00286e-07
-7.95584e-07
-7.86137e-07
-7.7783e-07
-7.81906e-07
-7.81906e-07
-7.81906e-07
-7.81906e-07
-7.81906e-07
-7.81906e-07
-8.05257e-07
-7.94979e-07
-7.86737e-07
-7.7648e-07
-7.81906e-07
-7.81906e-07
-7.81906e-07
-7.81906e-07
-7.81906e-07
-7.81906e-07
-8.0551e-07
-7.89889e-07
-7.79399e-07
-7.81906e-07
-7.81906e-07
-7.81906e-07
-7.81906e-07
-7.81906e-07
-7.81906e-07
-8.03933e-07
-8.01056e-07
-7.88286e-07
-7.87449e-07
-7.81906e-07
-7.81906e-07
-7.81906e-07
-7.81906e-07
-8.13208e-07
-7.96314e-07
-7.92933e-07
-7.87379e-07
-7.88562e-07
-8.00286e-07
-8.05261e-07
-8.05515e-07
-8.03953e-07
-7.96334e-07
-8.01544e-07
-7.95588e-07
-7.94979e-07
-7.89888e-07
-8.01062e-07
-7.9294e-07
-7.74841e-07
-7.75444e-07
-7.71934e-07
-7.68056e-07
-7.66534e-07
-7.65188e-07
-7.68107e-07
-7.76994e-07
-7.76083e-07
-7.71924e-07
-7.59109e-07
-7.70612e-07
-7.70613e-07
-7.70613e-07
-7.70613e-07
-7.76148e-07
-7.77269e-07
-7.6806e-07
-7.70613e-07
-7.70613e-07
-7.70613e-07
-7.70613e-07
-7.70613e-07
-7.70613e-07
-7.88993e-07
-7.84291e-07
-7.74844e-07
-7.66537e-07
-7.70613e-07
-7.70613e-07
-7.70613e-07
-7.70613e-07
-7.70613e-07
-7.70613e-07
-7.93964e-07
-7.83685e-07
-7.75444e-07
-7.65187e-07
-7.70613e-07
-7.70613e-07
-7.70613e-07
-7.70613e-07
-7.70613e-07
-7.70613e-07
-7.94217e-07
-7.78596e-07
-7.68106e-07
-7.70613e-07
-7.70613e-07
-7.70613e-07
-7.70613e-07
-7.70613e-07
-7.70613e-07
-7.9264e-07
-7.89763e-07
-7.76993e-07
-7.76156e-07
-7.70613e-07
-7.70613e-07
-7.70613e-07
-7.70613e-07
-8.01915e-07
-7.85021e-07
-7.8164e-07
-7.76086e-07
-7.7727e-07
-7.88994e-07
-7.93969e-07
-7.94222e-07
-7.9266e-07
-7.8504e-07
-7.9025e-07
-7.84295e-07
-7.83686e-07
-7.78596e-07
-7.89769e-07
-7.81643e-07
-7.63548e-07
-7.6415e-07
-7.6064e-07
-7.56762e-07
-7.55241e-07
-7.53895e-07
-7.56813e-07
-7.657e-07
-7.64789e-07
-7.60631e-07
-7.47816e-07
-7.59319e-07
-7.59319e-07
-7.59319e-07
-7.59319e-07
-7.64854e-07
-7.65975e-07
-7.56767e-07
-7.59319e-07
-7.59319e-07
-7.59319e-07
-7.59319e-07
-7.59319e-07
-7.5932e-07
-7.77699e-07
-7.72997e-07
-7.63551e-07
-7.55243e-07
-7.59319e-07
-7.59319e-07
-7.59319e-07
-7.59319e-07
-7.59319e-07
-7.5932e-07
-7.8267e-07
-7.72392e-07
-7.64151e-07
-7.53893e-07
-7.59319e-07
-7.59319e-07
-7.59319e-07
-7.59319e-07
-7.59319e-07
-7.5932e-07
-7.82924e-07
-7.67303e-07
-7.56813e-07
-7.59319e-07
-7.59319e-07
-7.59319e-07
-7.59319e-07
-7.59319e-07
-7.5932e-07
-7.81346e-07
-7.78469e-07
-7.657e-07
-7.64862e-07
-7.59319e-07
-7.59319e-07
-7.59319e-07
-7.59319e-07
-7.90621e-07
-7.73727e-07
-7.70346e-07
-7.64792e-07
-7.65976e-07
-7.777e-07
-7.82675e-07
-7.82928e-07
-7.81367e-07
-7.73747e-07
-7.78957e-07
-7.73001e-07
-7.72393e-07
-7.67302e-07
-7.78476e-07
-7.7035e-07
-7.52254e-07
-7.52856e-07
-7.49347e-07
-7.45469e-07
-7.43947e-07
-7.42601e-07
-7.45519e-07
-7.54407e-07
-7.53496e-07
-7.49337e-07
-7.36523e-07
-7.48026e-07
-7.48026e-07
-7.48026e-07
-7.48025e-07
-7.53559e-07
-7.54681e-07
-7.45473e-07
-7.48026e-07
-7.48026e-07
-7.48026e-07
-7.48026e-07
-7.48026e-07
-7.48026e-07
-7.66405e-07
-7.61703e-07
-7.52257e-07
-7.4395e-07
-7.48026e-07
-7.48026e-07
-7.48026e-07
-7.48026e-07
-7.48026e-07
-7.48026e-07
-7.71376e-07
-7.61098e-07
-7.52857e-07
-7.426e-07
-7.48026e-07
-7.48026e-07
-7.48026e-07
-7.48026e-07
-7.48026e-07
-7.48026e-07
-7.7163e-07
-7.56008e-07
-7.45519e-07
-7.48026e-07
-7.48026e-07
-7.48026e-07
-7.48026e-07
-7.48026e-07
-7.48026e-07
-7.70052e-07
-7.67175e-07
-7.54406e-07
-7.53568e-07
-7.48026e-07
-7.48026e-07
-7.48026e-07
-7.48026e-07
-7.79327e-07
-7.62433e-07
-7.59052e-07
-7.53499e-07
-7.54682e-07
-7.66406e-07
-7.71381e-07
-7.71634e-07
-7.70073e-07
-7.62453e-07
-7.67663e-07
-7.61708e-07
-7.61099e-07
-7.56008e-07
-7.6718e-07
-7.59056e-07
-7.40961e-07
-7.41563e-07
-7.38053e-07
-7.34175e-07
-7.32653e-07
-7.31307e-07
-7.34226e-07
-7.43112e-07
-7.42201e-07
-7.38044e-07
-7.25229e-07
-7.36732e-07
-7.36732e-07
-7.36732e-07
-7.36732e-07
-7.42266e-07
-7.43387e-07
-7.34179e-07
-7.36732e-07
-7.36732e-07
-7.36732e-07
-7.36732e-07
-7.36732e-07
-7.36732e-07
-7.55111e-07
-7.50409e-07
-7.40963e-07
-7.32656e-07
-7.36732e-07
-7.36732e-07
-7.36732e-07
-7.36732e-07
-7.36732e-07
-7.36732e-07
-7.60082e-07
-7.49804e-07
-7.41563e-07
-7.31306e-07
-7.36732e-07
-7.36732e-07
-7.36732e-07
-7.36732e-07
-7.36732e-07
-7.36732e-07
-7.60336e-07
-7.44715e-07
-7.34225e-07
-7.36732e-07
-7.36732e-07
-7.36732e-07
-7.36732e-07
-7.36732e-07
-7.36732e-07
-7.58758e-07
-7.55881e-07
-7.43112e-07
-7.42274e-07
-7.36732e-07
-7.36732e-07
-7.36732e-07
-7.36732e-07
-7.68033e-07
-7.5114e-07
-7.47759e-07
-7.42205e-07
-7.43388e-07
-7.55112e-07
-7.60087e-07
-7.6034e-07
-7.58779e-07
-7.51159e-07
-7.56369e-07
-7.50414e-07
-7.49805e-07
-7.44714e-07
-7.55887e-07
-7.47762e-07
-7.29667e-07
-7.30269e-07
-7.26759e-07
-7.22881e-07
-7.21359e-07
-7.20014e-07
-7.22933e-07
-7.31819e-07
-7.30908e-07
-7.2675e-07
-7.13935e-07
-7.25438e-07
-7.25438e-07
-7.25438e-07
-7.25438e-07
-7.30972e-07
-7.32093e-07
-7.22885e-07
-7.25438e-07
-7.25438e-07
-7.25438e-07
-7.25438e-07
-7.25438e-07
-7.25438e-07
-7.43817e-07
-7.39115e-07
-7.29669e-07
-7.21362e-07
-7.25438e-07
-7.25438e-07
-7.25438e-07
-7.25438e-07
-7.25438e-07
-7.25438e-07
-7.48788e-07
-7.3851e-07
-7.30269e-07
-7.20012e-07
-7.25438e-07
-7.25438e-07
-7.25438e-07
-7.25438e-07
-7.25438e-07
-7.25438e-07
-7.49042e-07
-7.33421e-07
-7.22931e-07
-7.25438e-07
-7.25438e-07
-7.25438e-07
-7.25438e-07
-7.25438e-07
-7.25438e-07
-7.47464e-07
-7.44587e-07
-7.31818e-07
-7.30981e-07
-7.25438e-07
-7.25438e-07
-7.25438e-07
-7.25438e-07
-7.56739e-07
-7.39846e-07
-7.36465e-07
-7.30911e-07
-7.32095e-07
-7.43819e-07
-7.48794e-07
-7.49046e-07
-7.47485e-07
-7.39865e-07
-7.45075e-07
-7.3912e-07
-7.38511e-07
-7.33421e-07
-7.44593e-07
-7.36468e-07
-7.18373e-07
-7.18975e-07
-7.15465e-07
-7.11587e-07
-7.10065e-07
-7.0872e-07
-7.1164e-07
-7.20525e-07
-7.19614e-07
-7.15456e-07
-7.02642e-07
-7.14145e-07
-7.14145e-07
-7.14145e-07
-7.14145e-07
-7.19678e-07
-7.208e-07
-7.11592e-07
-7.14145e-07
-7.14145e-07
-7.14145e-07
-7.14145e-07
-7.14145e-07
-7.14145e-07
-7.32524e-07
-7.27822e-07
-7.18376e-07
-7.10069e-07
-7.14145e-07
-7.14145e-07
-7.14145e-07
-7.14145e-07
-7.14145e-07
-7.14145e-07
-7.37495e-07
-7.27217e-07
-7.18976e-07
-7.08719e-07
-7.14145e-07
-7.14145e-07
-7.14145e-07
-7.14145e-07
-7.14145e-07
-7.14145e-07
-7.37749e-07
-7.22127e-07
-7.11638e-07
-7.14145e-07
-7.14145e-07
-7.14145e-07
-7.14145e-07
-7.14145e-07
-7.14145e-07
-7.36171e-07
-7.33294e-07
-7.20525e-07
-7.19687e-07
-7.14145e-07
-7.14145e-07
-7.14146e-07
-7.14145e-07
-7.45446e-07
-7.28552e-07
-7.25171e-07
-7.19617e-07
-7.20801e-07
-7.32526e-07
-7.37501e-07
-7.37754e-07
-7.36192e-07
-7.28572e-07
-7.33782e-07
-7.27826e-07
-7.27218e-07
-7.22127e-07
-7.33299e-07
-7.25175e-07
-7.07081e-07
-7.07683e-07
-7.04173e-07
-7.00295e-07
-6.98773e-07
-6.97428e-07
-7.00348e-07
-7.09233e-07
-7.08322e-07
-7.04164e-07
-6.91349e-07
-7.02853e-07
-7.02853e-07
-7.02853e-07
-7.02853e-07
-7.08387e-07
-7.09508e-07
-7.003e-07
-7.02853e-07
-7.02852e-07
-7.02853e-07
-7.02852e-07
-7.02853e-07
-7.02853e-07
-7.21232e-07
-7.16529e-07
-7.07084e-07
-6.98777e-07
-7.02852e-07
-7.02852e-07
-7.02853e-07
-7.02853e-07
-7.02853e-07
-7.02853e-07
-7.26203e-07
-7.15925e-07
-7.07684e-07
-6.97428e-07
-7.02852e-07
-7.02852e-07
-7.02853e-07
-7.02852e-07
-7.02853e-07
-7.02853e-07
-7.26456e-07
-7.10835e-07
-7.00345e-07
-7.02853e-07
-7.02852e-07
-7.02853e-07
-7.02853e-07
-7.02853e-07
-7.02853e-07
-7.24879e-07
-7.22002e-07
-7.09233e-07
-7.08395e-07
-7.02853e-07
-7.02853e-07
-7.02853e-07
-7.02853e-07
-7.34154e-07
-7.1726e-07
-7.13879e-07
-7.08325e-07
-7.09509e-07
-7.21235e-07
-7.2621e-07
-7.26464e-07
-7.249e-07
-7.1728e-07
-7.22489e-07
-7.16534e-07
-7.15925e-07
-7.10836e-07
-7.22007e-07
-7.13883e-07
-6.95788e-07
-6.9639e-07
-6.92881e-07
-6.89003e-07
-6.8748e-07
-6.86135e-07
-6.89055e-07
-6.97939e-07
-6.9703e-07
-6.92871e-07
-6.80055e-07
-6.91559e-07
-6.9156e-07
-6.91559e-07
-6.9156e-07
-6.97099e-07
-6.98215e-07
-6.89007e-07
-6.9156e-07
-6.91559e-07
-6.9156e-07
-6.91559e-07
-6.9156e-07
-6.9156e-07
-7.09939e-07
-7.05237e-07
-6.95791e-07
-6.87484e-07
-6.91559e-07
-6.91559e-07
-6.91559e-07
-6.91559e-07
-6.9156e-07
-6.9156e-07
-7.1491e-07
-7.04632e-07
-6.96391e-07
-6.86135e-07
-6.9156e-07
-6.91559e-07
-6.91559e-07
-6.91559e-07
-6.9156e-07
-6.9156e-07
-7.15163e-07
-6.99542e-07
-6.89052e-07
-6.9156e-07
-6.91559e-07
-6.91559e-07
-6.91559e-07
-6.9156e-07
-6.9156e-07
-7.13586e-07
-7.10709e-07
-6.9794e-07
-6.97102e-07
-6.9156e-07
-6.9156e-07
-6.9156e-07
-6.9156e-07
-7.22861e-07
-7.05967e-07
-7.02586e-07
-6.97032e-07
-6.98216e-07
-7.09942e-07
-7.14917e-07
-7.15171e-07
-7.13607e-07
-7.05987e-07
-7.11197e-07
-7.05241e-07
-7.04632e-07
-6.99542e-07
-7.10714e-07
-7.0259e-07
-6.84495e-07
-6.85097e-07
-6.81587e-07
-6.7771e-07
-6.76187e-07
-6.74842e-07
-6.77762e-07
-6.86647e-07
-6.85736e-07
-6.81578e-07
-6.68763e-07
-6.80267e-07
-6.80267e-07
-6.80266e-07
-6.80267e-07
-6.85806e-07
-6.86922e-07
-6.77714e-07
-6.80266e-07
-6.80266e-07
-6.80266e-07
-6.80266e-07
-6.80266e-07
-6.80266e-07
-6.98646e-07
-6.93944e-07
-6.84498e-07
-6.76191e-07
-6.80267e-07