/*--------------------------------*- C++ -*----------------------------------*\
| =========                 |                                                 |
| \\      /  F ield         | OpenFOAM: The Open Source CFD Toolbox           |
|  \\    /   O peration     | Version:  v2012                                 |
|   \\  /    A nd           | Website:  www.openfoam.com                      |
|    \\/     M anipulation  |                                                 |
\*---------------------------------------------------------------------------*/
FoamFile
{
    version     2.0;
    format      ascii;
    class       volScalarField;
    location    "0.145";
    object      p;
}
// * * * * * * * * * * * * * * * * * * * * * * * * * * * * * * * * * * * * * //

dimensions      [0 2 -2 0 0 0 0];


internalField   nonuniform List<scalar> 
189320
(
-1.19613e-06
-1.18917e-06
-1.20454e-06
-1.20623e-06
-1.2148e-06
-1.21747e-06
-1.21133e-06
-1.20984e-06
-1.2086e-06
-1.20454e-06
-1.2162e-06
-1.21673e-06
-1.21989e-06
-1.22056e-06
-1.21839e-06
-1.21636e-06
-1.20864e-06
-1.20623e-06
-1.21672e-06
-1.22142e-06
-1.22351e-06
-1.22392e-06
-1.22261e-06
-1.21911e-06
-1.21602e-06
-1.20712e-06
-1.19635e-06
-1.21483e-06
-1.21989e-06
-1.22352e-06
-1.22485e-06
-1.22506e-06
-1.22436e-06
-1.22207e-06
-1.21654e-06
-1.2078e-06
-1.18934e-06
-1.21751e-06
-1.22057e-06
-1.22392e-06
-1.22506e-06
-1.22525e-06
-1.22467e-06
-1.22272e-06
-1.21756e-06
-1.20905e-06
-1.21136e-06
-1.21839e-06
-1.2226e-06
-1.22435e-06
-1.22467e-06
-1.22366e-06
-1.22083e-06
-1.21607e-06
-1.19607e-06
-1.20986e-06
-1.21635e-06
-1.21909e-06
-1.22205e-06
-1.22271e-06
-1.22083e-06
-1.21671e-06
-1.21559e-06
-1.20702e-06
-1.20859e-06
-1.20862e-06
-1.21598e-06
-1.21648e-06
-1.21752e-06
-1.21605e-06
-1.21558e-06
-1.21558e-06
-1.2071e-06
-1.20773e-06
-1.2089e-06
-1.19602e-06
-1.20698e-06
-1.21679e-06
-1.21717e-06
-1.21346e-06
-1.21043e-06
-1.21019e-06
-1.20881e-06
-1.21027e-06
-1.21927e-06
-1.21747e-06
-1.21346e-06
-1.20206e-06
-1.21414e-06
-1.217e-06
-1.217e-06
-1.21417e-06
-1.21744e-06
-1.21993e-06
-1.21043e-06
-1.21416e-06
-1.2234e-06
-1.22343e-06
-1.22345e-06
-1.22341e-06
-1.21413e-06
-1.2317e-06
-1.22604e-06
-1.21679e-06
-1.21018e-06
-1.217e-06
-1.22345e-06
-1.22313e-06
-1.22313e-06
-1.22344e-06
-1.21703e-06
-1.23249e-06
-1.22641e-06
-1.21716e-06
-1.20879e-06
-1.21698e-06
-1.22345e-06
-1.22313e-06
-1.22313e-06
-1.22343e-06
-1.21702e-06
-1.23293e-06
-1.22104e-06
-1.21026e-06
-1.21416e-06
-1.2234e-06
-1.22343e-06
-1.22345e-06
-1.2234e-06
-1.21414e-06
-1.23311e-06
-1.23127e-06
-1.21924e-06
-1.21743e-06
-1.2141e-06
-1.21698e-06
-1.217e-06
-1.21415e-06
-1.24716e-06
-1.22811e-06
-1.22262e-06
-1.21745e-06
-1.21992e-06
-1.23168e-06
-1.23248e-06
-1.23293e-06
-1.23315e-06
-1.22815e-06
-1.23209e-06
-1.22602e-06
-1.22638e-06
-1.22102e-06
-1.23127e-06
-1.2226e-06
-1.20608e-06
-1.20675e-06
-1.20246e-06
-1.19861e-06
-1.19744e-06
-1.19609e-06
-1.19858e-06
-1.20824e-06
-1.20681e-06
-1.20247e-06
-1.1895e-06
-1.20107e-06
-1.20161e-06
-1.20162e-06
-1.20108e-06
-1.20655e-06
-1.20778e-06
-1.19861e-06
-1.20107e-06
-1.20541e-06
-1.20573e-06
-1.20575e-06
-1.20541e-06
-1.20107e-06
-1.22084e-06
-1.21589e-06
-1.20608e-06
-1.19744e-06
-1.2016e-06
-1.20575e-06
-1.20588e-06
-1.20589e-06
-1.20574e-06
-1.20163e-06
-1.22616e-06
-1.21552e-06
-1.20674e-06
-1.19608e-06
-1.20159e-06
-1.20575e-06
-1.20589e-06
-1.20589e-06
-1.20574e-06
-1.20162e-06
-1.22664e-06
-1.20992e-06
-1.19858e-06
-1.20107e-06
-1.20541e-06
-1.20573e-06
-1.20576e-06
-1.20541e-06
-1.20107e-06
-1.22523e-06
-1.22185e-06
-1.20821e-06
-1.20654e-06
-1.20105e-06
-1.2016e-06
-1.20161e-06
-1.20107e-06
-1.23364e-06
-1.21665e-06
-1.2128e-06
-1.20679e-06
-1.20776e-06
-1.22083e-06
-1.22614e-06
-1.22663e-06
-1.22523e-06
-1.21669e-06
-1.22176e-06
-1.21587e-06
-1.21551e-06
-1.2099e-06
-1.22183e-06
-1.21279e-06
-1.1931e-06
-1.19374e-06
-1.18983e-06
-1.18556e-06
-1.18412e-06
-1.18266e-06
-1.18551e-06
-1.19543e-06
-1.19426e-06
-1.18982e-06
-1.17604e-06
-1.18784e-06
-1.18795e-06
-1.18795e-06
-1.18785e-06
-1.19408e-06
-1.19517e-06
-1.18556e-06
-1.18784e-06
-1.18934e-06
-1.18953e-06
-1.18955e-06
-1.18934e-06
-1.18784e-06
-1.20809e-06
-1.20309e-06
-1.1931e-06
-1.18413e-06
-1.18794e-06
-1.18954e-06
-1.18971e-06
-1.18972e-06
-1.18954e-06
-1.18796e-06
-1.21347e-06
-1.20255e-06
-1.19374e-06
-1.18266e-06
-1.18794e-06
-1.18955e-06
-1.18972e-06
-1.18972e-06
-1.18954e-06
-1.18795e-06
-1.21383e-06
-1.19681e-06
-1.1855e-06
-1.18783e-06
-1.18934e-06
-1.18954e-06
-1.18955e-06
-1.18934e-06
-1.18785e-06
-1.21228e-06
-1.20898e-06
-1.19543e-06
-1.19408e-06
-1.18783e-06
-1.18794e-06
-1.18795e-06
-1.18784e-06
-1.22151e-06
-1.20368e-06
-1.20016e-06
-1.19425e-06
-1.19517e-06
-1.20808e-06
-1.21346e-06
-1.21383e-06
-1.2123e-06
-1.20371e-06
-1.20933e-06
-1.20308e-06
-1.20255e-06
-1.19679e-06
-1.20899e-06
-1.20016e-06
-1.17967e-06
-1.1803e-06
-1.1765e-06
-1.17209e-06
-1.17054e-06
-1.16902e-06
-1.17205e-06
-1.18206e-06
-1.18094e-06
-1.1765e-06
-1.16237e-06
-1.17429e-06
-1.17432e-06
-1.17432e-06
-1.17429e-06
-1.18079e-06
-1.18187e-06
-1.17208e-06
-1.17429e-06
-1.17483e-06
-1.17489e-06
-1.17489e-06
-1.17483e-06
-1.1743e-06
-1.19466e-06
-1.18973e-06
-1.17967e-06
-1.17054e-06
-1.17432e-06
-1.17489e-06
-1.17495e-06
-1.17495e-06
-1.17489e-06
-1.17432e-06
-1.20007e-06
-1.18912e-06
-1.18029e-06
-1.16902e-06
-1.17432e-06
-1.17489e-06
-1.17495e-06
-1.17495e-06
-1.17489e-06
-1.17432e-06
-1.20039e-06
-1.18334e-06
-1.17204e-06
-1.17429e-06
-1.17483e-06
-1.17489e-06
-1.1749e-06
-1.17483e-06
-1.17429e-06
-1.19867e-06
-1.1956e-06
-1.18206e-06
-1.18079e-06
-1.17429e-06
-1.17431e-06
-1.17432e-06
-1.17429e-06
-1.20836e-06
-1.19026e-06
-1.18684e-06
-1.18095e-06
-1.18187e-06
-1.19465e-06
-1.20006e-06
-1.20039e-06
-1.19869e-06
-1.1903e-06
-1.19607e-06
-1.18972e-06
-1.18912e-06
-1.18333e-06
-1.1956e-06
-1.18684e-06
-1.16606e-06
-1.16669e-06
-1.16293e-06
-1.15847e-06
-1.15687e-06
-1.15533e-06
-1.15844e-06
-1.16849e-06
-1.16741e-06
-1.16293e-06
-1.14867e-06
-1.16064e-06
-1.16064e-06
-1.16064e-06
-1.16064e-06
-1.16724e-06
-1.16832e-06
-1.15848e-06
-1.16064e-06
-1.16084e-06
-1.16087e-06
-1.16086e-06
-1.16084e-06
-1.16065e-06
-1.18105e-06
-1.17616e-06
-1.16607e-06
-1.15687e-06
-1.16065e-06
-1.16086e-06
-1.16088e-06
-1.16088e-06
-1.16087e-06
-1.16064e-06
-1.18646e-06
-1.17552e-06
-1.16669e-06
-1.15533e-06
-1.16064e-06
-1.16086e-06
-1.16088e-06
-1.16088e-06
-1.16086e-06
-1.16064e-06
-1.18677e-06
-1.16973e-06
-1.15844e-06
-1.16064e-06
-1.16084e-06
-1.16086e-06
-1.16086e-06
-1.16084e-06
-1.16064e-06
-1.18502e-06
-1.18202e-06
-1.16849e-06
-1.16724e-06
-1.16064e-06
-1.16064e-06
-1.16065e-06
-1.16064e-06
-1.19488e-06
-1.17668e-06
-1.17328e-06
-1.16741e-06
-1.16832e-06
-1.18105e-06
-1.18645e-06
-1.18677e-06
-1.18504e-06
-1.17672e-06
-1.18256e-06
-1.17616e-06
-1.17552e-06
-1.16973e-06
-1.18202e-06
-1.17329e-06
-1.15241e-06
-1.15303e-06
-1.1493e-06
-1.1448e-06
-1.14316e-06
-1.14163e-06
-1.14479e-06
-1.15484e-06
-1.15377e-06
-1.14929e-06
-1.13497e-06
-1.14697e-06
-1.14696e-06
-1.14696e-06
-1.14697e-06
-1.15359e-06
-1.15469e-06
-1.14481e-06
-1.14696e-06
-1.14704e-06
-1.14704e-06
-1.14704e-06
-1.14704e-06
-1.14696e-06
-1.1674e-06
-1.16251e-06
-1.15241e-06
-1.14317e-06
-1.14696e-06
-1.14705e-06
-1.14705e-06
-1.14705e-06
-1.14705e-06
-1.14696e-06
-1.17279e-06
-1.16187e-06
-1.15303e-06
-1.14164e-06
-1.14696e-06
-1.14705e-06
-1.14705e-06
-1.14705e-06
-1.14705e-06
-1.14696e-06
-1.1731e-06
-1.15607e-06
-1.14479e-06
-1.14696e-06
-1.14704e-06
-1.14705e-06
-1.14704e-06
-1.14703e-06
-1.14696e-06
-1.17135e-06
-1.16838e-06
-1.15484e-06
-1.15359e-06
-1.14697e-06
-1.14696e-06
-1.14697e-06
-1.14697e-06
-1.18128e-06
-1.16304e-06
-1.15965e-06
-1.15377e-06
-1.15469e-06
-1.1674e-06
-1.1728e-06
-1.17309e-06
-1.17136e-06
-1.16307e-06
-1.16893e-06
-1.16252e-06
-1.16187e-06
-1.15606e-06
-1.16839e-06
-1.15965e-06
-1.13873e-06
-1.13935e-06
-1.13562e-06
-1.13112e-06
-1.12947e-06
-1.12795e-06
-1.13111e-06
-1.14116e-06
-1.1401e-06
-1.13562e-06
-1.12127e-06
-1.13328e-06
-1.13328e-06
-1.13328e-06
-1.13328e-06
-1.13992e-06
-1.14102e-06
-1.13113e-06
-1.13328e-06
-1.1333e-06
-1.13331e-06
-1.13331e-06
-1.1333e-06
-1.13328e-06
-1.15372e-06
-1.14884e-06
-1.13873e-06
-1.12948e-06
-1.13328e-06
-1.13331e-06
-1.13331e-06
-1.13331e-06
-1.13331e-06
-1.13328e-06
-1.15911e-06
-1.14819e-06
-1.13935e-06
-1.12795e-06
-1.13328e-06
-1.13331e-06
-1.13331e-06
-1.13331e-06
-1.13331e-06
-1.13328e-06
-1.15941e-06
-1.14239e-06
-1.13111e-06
-1.13328e-06
-1.1333e-06
-1.13331e-06
-1.13331e-06
-1.1333e-06
-1.13328e-06
-1.15765e-06
-1.15471e-06
-1.14117e-06
-1.13992e-06
-1.13328e-06
-1.13328e-06
-1.13328e-06
-1.13328e-06
-1.16763e-06
-1.14938e-06
-1.14598e-06
-1.1401e-06
-1.14102e-06
-1.15372e-06
-1.15911e-06
-1.1594e-06
-1.15767e-06
-1.1494e-06
-1.15526e-06
-1.14884e-06
-1.14819e-06
-1.14238e-06
-1.15471e-06
-1.14598e-06
-1.12504e-06
-1.12567e-06
-1.12194e-06
-1.11744e-06
-1.11578e-06
-1.11425e-06
-1.11743e-06
-1.12748e-06
-1.12642e-06
-1.12194e-06
-1.10758e-06
-1.11959e-06
-1.11959e-06
-1.11959e-06
-1.11959e-06
-1.12624e-06
-1.12734e-06
-1.11744e-06
-1.11959e-06
-1.1196e-06
-1.11961e-06
-1.11961e-06
-1.1196e-06
-1.1196e-06
-1.14004e-06
-1.13516e-06
-1.12505e-06
-1.11579e-06
-1.11959e-06
-1.11961e-06
-1.11961e-06
-1.11961e-06
-1.1196e-06
-1.1196e-06
-1.14543e-06
-1.13451e-06
-1.12567e-06
-1.11425e-06
-1.11959e-06
-1.1196e-06
-1.1196e-06
-1.11961e-06
-1.11961e-06
-1.11959e-06
-1.14572e-06
-1.1287e-06
-1.11743e-06
-1.11959e-06
-1.11961e-06
-1.11961e-06
-1.11961e-06
-1.11961e-06
-1.11959e-06
-1.14397e-06
-1.14102e-06
-1.12748e-06
-1.12624e-06
-1.11959e-06
-1.11959e-06
-1.11959e-06
-1.11959e-06
-1.15395e-06
-1.1357e-06
-1.13229e-06
-1.12642e-06
-1.12734e-06
-1.14004e-06
-1.14543e-06
-1.14572e-06
-1.14399e-06
-1.13572e-06
-1.14158e-06
-1.13516e-06
-1.1345e-06
-1.1287e-06
-1.14103e-06
-1.1323e-06
-1.11136e-06
-1.11198e-06
-1.10825e-06
-1.10375e-06
-1.10209e-06
-1.10056e-06
-1.10374e-06
-1.1138e-06
-1.11273e-06
-1.10825e-06
-1.09389e-06
-1.1059e-06
-1.1059e-06
-1.1059e-06
-1.10591e-06
-1.11255e-06
-1.11365e-06
-1.10375e-06
-1.1059e-06
-1.10591e-06
-1.10591e-06
-1.10591e-06
-1.10591e-06
-1.10591e-06
-1.12636e-06
-1.12148e-06
-1.11136e-06
-1.1021e-06
-1.1059e-06
-1.10591e-06
-1.10591e-06
-1.10591e-06
-1.10591e-06
-1.1059e-06
-1.13175e-06
-1.12082e-06
-1.11198e-06
-1.10056e-06
-1.1059e-06
-1.10591e-06
-1.10591e-06
-1.10591e-06
-1.10591e-06
-1.10591e-06
-1.13204e-06
-1.11502e-06
-1.10374e-06
-1.1059e-06
-1.10591e-06
-1.10591e-06
-1.10591e-06
-1.10591e-06
-1.1059e-06
-1.13028e-06
-1.12734e-06
-1.1138e-06
-1.11256e-06
-1.1059e-06
-1.1059e-06
-1.1059e-06
-1.1059e-06
-1.14027e-06
-1.12201e-06
-1.11861e-06
-1.11274e-06
-1.11365e-06
-1.12636e-06
-1.13175e-06
-1.13204e-06
-1.1303e-06
-1.12204e-06
-1.1279e-06
-1.12148e-06
-1.12082e-06
-1.11501e-06
-1.12735e-06
-1.11862e-06
-1.09767e-06
-1.0983e-06
-1.09457e-06
-1.09006e-06
-1.0884e-06
-1.08688e-06
-1.09006e-06
-1.10011e-06
-1.09905e-06
-1.09457e-06
-1.08021e-06
-1.09222e-06
-1.09222e-06
-1.09222e-06
-1.09222e-06
-1.09887e-06
-1.09997e-06
-1.09007e-06
-1.09222e-06
-1.09222e-06
-1.09222e-06
-1.09222e-06
-1.09222e-06
-1.09222e-06
-1.11267e-06
-1.10779e-06
-1.09767e-06
-1.08841e-06
-1.09222e-06
-1.09222e-06
-1.09222e-06
-1.09222e-06
-1.09222e-06
-1.09222e-06
-1.11805e-06
-1.10714e-06
-1.0983e-06
-1.08688e-06
-1.09222e-06
-1.09222e-06
-1.09222e-06
-1.09222e-06
-1.09222e-06
-1.09222e-06
-1.11835e-06
-1.10133e-06
-1.09006e-06
-1.09222e-06
-1.09222e-06
-1.09222e-06
-1.09222e-06
-1.09222e-06
-1.09222e-06
-1.11659e-06
-1.11365e-06
-1.10011e-06
-1.09887e-06
-1.09222e-06
-1.09222e-06
-1.09222e-06
-1.09222e-06
-1.12658e-06
-1.10832e-06
-1.10492e-06
-1.09905e-06
-1.09997e-06
-1.11267e-06
-1.11806e-06
-1.11835e-06
-1.11661e-06
-1.10835e-06
-1.11421e-06
-1.10779e-06
-1.10713e-06
-1.10133e-06
-1.11366e-06
-1.10493e-06
-1.08398e-06
-1.08461e-06
-1.08089e-06
-1.07638e-06
-1.07472e-06
-1.07319e-06
-1.07637e-06
-1.08642e-06
-1.08536e-06
-1.08088e-06
-1.06652e-06
-1.07853e-06
-1.07853e-06
-1.07853e-06
-1.07853e-06
-1.08518e-06
-1.08628e-06
-1.07638e-06
-1.07853e-06
-1.07853e-06
-1.07853e-06
-1.07853e-06
-1.07853e-06
-1.07853e-06
-1.09898e-06
-1.0941e-06
-1.08399e-06
-1.07472e-06
-1.07853e-06
-1.07853e-06
-1.07853e-06
-1.07853e-06
-1.07853e-06
-1.07853e-06
-1.10437e-06
-1.09345e-06
-1.08461e-06
-1.07319e-06
-1.07853e-06
-1.07853e-06
-1.07853e-06
-1.07853e-06
-1.07853e-06
-1.07853e-06
-1.10466e-06
-1.08764e-06
-1.07637e-06
-1.07853e-06
-1.07853e-06
-1.07853e-06
-1.07853e-06
-1.07853e-06
-1.07853e-06
-1.10291e-06
-1.09997e-06
-1.08642e-06
-1.08519e-06
-1.07853e-06
-1.07853e-06
-1.07853e-06
-1.07853e-06
-1.1129e-06
-1.09464e-06
-1.09124e-06
-1.08537e-06
-1.08628e-06
-1.09898e-06
-1.10437e-06
-1.10466e-06
-1.10293e-06
-1.09466e-06
-1.10053e-06
-1.09411e-06
-1.09345e-06
-1.08764e-06
-1.09997e-06
-1.09124e-06
-1.0703e-06
-1.07092e-06
-1.0672e-06
-1.06269e-06
-1.06103e-06
-1.05951e-06
-1.06269e-06
-1.07274e-06
-1.07167e-06
-1.06719e-06
-1.05283e-06
-1.06485e-06
-1.06485e-06
-1.06485e-06
-1.06485e-06
-1.07149e-06
-1.07259e-06
-1.06269e-06
-1.06485e-06
-1.06485e-06
-1.06485e-06
-1.06485e-06
-1.06485e-06
-1.06485e-06
-1.08529e-06
-1.08042e-06
-1.0703e-06
-1.06103e-06
-1.06485e-06
-1.06485e-06
-1.06485e-06
-1.06485e-06
-1.06485e-06
-1.06484e-06
-1.09068e-06
-1.07976e-06
-1.07092e-06
-1.0595e-06
-1.06484e-06
-1.06485e-06
-1.06485e-06
-1.06485e-06
-1.06485e-06
-1.06484e-06
-1.09097e-06
-1.07396e-06
-1.06269e-06
-1.06485e-06
-1.06485e-06
-1.06485e-06
-1.06485e-06
-1.06485e-06
-1.06485e-06
-1.08922e-06
-1.08628e-06
-1.07274e-06
-1.0715e-06
-1.06485e-06
-1.06484e-06
-1.06484e-06
-1.06485e-06
-1.09921e-06
-1.08095e-06
-1.07755e-06
-1.07168e-06
-1.0726e-06
-1.0853e-06
-1.09069e-06
-1.09098e-06
-1.08924e-06
-1.08098e-06
-1.08684e-06
-1.08042e-06
-1.07976e-06
-1.07395e-06
-1.08629e-06
-1.07756e-06
-1.05661e-06
-1.05724e-06
-1.05352e-06
-1.04901e-06
-1.04735e-06
-1.04582e-06
-1.04901e-06
-1.05905e-06
-1.05798e-06
-1.05351e-06
-1.03914e-06
-1.05116e-06
-1.05116e-06
-1.05116e-06
-1.05116e-06
-1.05781e-06
-1.05891e-06
-1.04901e-06
-1.05116e-06
-1.05116e-06
-1.05116e-06
-1.05116e-06
-1.05116e-06
-1.05116e-06
-1.07161e-06
-1.06673e-06
-1.05662e-06
-1.04735e-06
-1.05116e-06
-1.05116e-06
-1.05116e-06
-1.05116e-06
-1.05116e-06
-1.05116e-06
-1.07699e-06
-1.06608e-06
-1.05724e-06
-1.04582e-06
-1.05116e-06
-1.05116e-06
-1.05116e-06
-1.05116e-06
-1.05116e-06
-1.05116e-06
-1.07729e-06
-1.06027e-06
-1.049e-06
-1.05116e-06
-1.05116e-06
-1.05116e-06
-1.05116e-06
-1.05116e-06
-1.05116e-06
-1.07554e-06
-1.0726e-06
-1.05905e-06
-1.05782e-06
-1.05116e-06
-1.05116e-06
-1.05116e-06
-1.05116e-06
-1.08553e-06
-1.06727e-06
-1.06387e-06
-1.05799e-06
-1.05891e-06
-1.07161e-06
-1.077e-06
-1.07729e-06
-1.07556e-06
-1.06729e-06
-1.07315e-06
-1.06673e-06
-1.06608e-06
-1.06027e-06
-1.0726e-06
-1.06387e-06
-1.04293e-06
-1.04355e-06
-1.03983e-06
-1.03532e-06
-1.03366e-06
-1.03213e-06
-1.03532e-06
-1.04536e-06
-1.04429e-06
-1.03982e-06
-1.02546e-06
-1.03747e-06
-1.03747e-06
-1.03747e-06
-1.03747e-06
-1.04412e-06
-1.04522e-06
-1.03532e-06
-1.03747e-06
-1.03747e-06
-1.03747e-06
-1.03747e-06
-1.03747e-06
-1.03747e-06
-1.05792e-06
-1.05304e-06
-1.04293e-06
-1.03366e-06
-1.03747e-06
-1.03747e-06
-1.03747e-06
-1.03747e-06
-1.03747e-06
-1.03747e-06
-1.06331e-06
-1.05239e-06
-1.04355e-06
-1.03213e-06
-1.03747e-06
-1.03747e-06
-1.03747e-06
-1.03747e-06
-1.03747e-06
-1.03747e-06
-1.0636e-06
-1.04658e-06
-1.03531e-06
-1.03747e-06
-1.03747e-06
-1.03747e-06
-1.03747e-06
-1.03747e-06
-1.03747e-06
-1.06185e-06
-1.05891e-06
-1.04536e-06
-1.04413e-06
-1.03747e-06
-1.03747e-06
-1.03747e-06
-1.03747e-06
-1.07184e-06
-1.05358e-06
-1.05018e-06
-1.04431e-06
-1.04522e-06
-1.05792e-06
-1.06331e-06
-1.0636e-06
-1.06187e-06
-1.0536e-06
-1.05947e-06
-1.05305e-06
-1.05239e-06
-1.04658e-06
-1.05891e-06
-1.05019e-06
-1.02924e-06
-1.02986e-06
-1.02614e-06
-1.02163e-06
-1.01997e-06
-1.01845e-06
-1.02163e-06
-1.03168e-06
-1.03061e-06
-1.02613e-06
-1.01177e-06
-1.02379e-06
-1.02379e-06
-1.02379e-06
-1.02379e-06
-1.03044e-06
-1.03153e-06
-1.02163e-06
-1.02379e-06
-1.02379e-06
-1.02379e-06
-1.02379e-06
-1.02379e-06
-1.02379e-06
-1.04423e-06
-1.03936e-06
-1.02924e-06
-1.01997e-06
-1.02379e-06
-1.02379e-06
-1.02379e-06
-1.02379e-06
-1.02379e-06
-1.02379e-06
-1.04962e-06
-1.0387e-06
-1.02986e-06
-1.01844e-06
-1.02379e-06
-1.02379e-06
-1.02379e-06
-1.02379e-06
-1.02379e-06
-1.02379e-06
-1.04991e-06
-1.0329e-06
-1.02163e-06
-1.02379e-06
-1.02379e-06
-1.02379e-06
-1.02379e-06
-1.02379e-06
-1.02379e-06
-1.04817e-06
-1.04522e-06
-1.03168e-06
-1.03044e-06
-1.02379e-06
-1.02379e-06
-1.02379e-06
-1.02379e-06
-1.05815e-06
-1.0399e-06
-1.03649e-06
-1.03062e-06
-1.03154e-06
-1.04424e-06
-1.04963e-06
-1.04992e-06
-1.04818e-06
-1.03992e-06
-1.04578e-06
-1.03936e-06
-1.0387e-06
-1.03289e-06
-1.04523e-06
-1.0365e-06
-1.01555e-06
-1.01618e-06
-1.01246e-06
-1.00795e-06
-1.00629e-06
-1.00476e-06
-1.00795e-06
-1.01799e-06
-1.01692e-06
-1.01245e-06
-9.98086e-07
-1.0101e-06
-1.0101e-06
-1.0101e-06
-1.0101e-06
-1.01675e-06
-1.01785e-06
-1.00795e-06
-1.0101e-06
-1.0101e-06
-1.0101e-06
-1.0101e-06
-1.0101e-06
-1.0101e-06
-1.03055e-06
-1.02567e-06
-1.01556e-06
-1.00629e-06
-1.0101e-06
-1.0101e-06
-1.0101e-06
-1.0101e-06
-1.0101e-06
-1.0101e-06
-1.03593e-06
-1.02502e-06
-1.01618e-06
-1.00476e-06
-1.0101e-06
-1.0101e-06
-1.0101e-06
-1.0101e-06
-1.0101e-06
-1.0101e-06
-1.03623e-06
-1.01921e-06
-1.00794e-06
-1.0101e-06
-1.0101e-06
-1.0101e-06
-1.0101e-06
-1.0101e-06
-1.0101e-06
-1.03448e-06
-1.03154e-06
-1.01799e-06
-1.01676e-06
-1.0101e-06
-1.0101e-06
-1.0101e-06
-1.0101e-06
-1.04447e-06
-1.02621e-06
-1.02281e-06
-1.01693e-06
-1.01785e-06
-1.03055e-06
-1.03594e-06
-1.03623e-06
-1.0345e-06
-1.02623e-06
-1.0321e-06
-1.02568e-06
-1.02502e-06
-1.01921e-06
-1.03154e-06
-1.02281e-06
-1.00187e-06
-1.00249e-06
-9.9877e-07
-9.94259e-07
-9.926e-07
-9.91072e-07
-9.9426e-07
-1.0043e-06
-1.00324e-06
-9.98762e-07
-9.84399e-07
-9.96413e-07
-9.96413e-07
-9.96412e-07
-9.96412e-07
-1.00306e-06
-1.00416e-06
-9.9426e-07
-9.96413e-07
-9.96413e-07
-9.96412e-07
-9.96412e-07
-9.96412e-07
-9.96413e-07
-1.01686e-06
-1.01198e-06
-1.00187e-06
-9.92601e-07
-9.96413e-07
-9.96412e-07
-9.96412e-07
-9.96412e-07
-9.96412e-07
-9.96413e-07
-1.02225e-06
-1.01133e-06
-1.00249e-06
-9.9107e-07
-9.96413e-07
-9.96412e-07
-9.96412e-07
-9.96412e-07
-9.96412e-07
-9.96413e-07
-1.02254e-06
-1.00552e-06
-9.94255e-07
-9.96413e-07
-9.96412e-07
-9.96412e-07
-9.96412e-07
-9.96412e-07
-9.96413e-07
-1.02079e-06
-1.01785e-06
-1.0043e-06
-1.00307e-06
-9.96413e-07
-9.96413e-07
-9.96412e-07
-9.96412e-07
-1.03078e-06
-1.01252e-06
-1.00912e-06
-1.00325e-06
-1.00416e-06
-1.01686e-06
-1.02225e-06
-1.02254e-06
-1.02081e-06
-1.01254e-06
-1.01841e-06
-1.01199e-06
-1.01133e-06
-1.00552e-06
-1.01786e-06
-1.00913e-06
-9.88178e-07
-9.88803e-07
-9.85081e-07
-9.80571e-07
-9.78912e-07
-9.77384e-07
-9.80572e-07
-9.90618e-07
-9.89548e-07
-9.85074e-07
-9.70711e-07
-9.82725e-07
-9.82725e-07
-9.82725e-07
-9.82725e-07
-9.89374e-07
-9.90472e-07
-9.80572e-07
-9.82725e-07
-9.82725e-07
-9.82725e-07
-9.82725e-07
-9.82725e-07
-9.82725e-07
-1.00317e-06
-9.98296e-07
-9.88181e-07
-9.78913e-07
-9.82725e-07
-9.82725e-07
-9.82725e-07
-9.82725e-07
-9.82725e-07
-9.82725e-07
-1.00856e-06
-9.97642e-07
-9.88803e-07
-9.77382e-07
-9.82725e-07
-9.82725e-07
-9.82725e-07
-9.82725e-07
-9.82725e-07
-9.82725e-07
-1.00885e-06
-9.91837e-07
-9.80567e-07
-9.82725e-07
-9.82725e-07
-9.82725e-07
-9.82725e-07
-9.82725e-07
-9.82725e-07
-1.0071e-06
-1.00416e-06
-9.90617e-07
-9.89382e-07
-9.82725e-07
-9.82725e-07
-9.82725e-07
-9.82725e-07
-1.01709e-06
-9.98834e-07
-9.95431e-07
-9.89559e-07
-9.90475e-07
-1.00318e-06
-1.00857e-06
-1.00886e-06
-1.00712e-06
-9.98857e-07
-1.00472e-06
-9.98301e-07
-9.97643e-07
-9.91836e-07
-1.00417e-06
-9.95439e-07
-9.74491e-07
-9.75116e-07
-9.71394e-07
-9.66884e-07
-9.65225e-07
-9.63697e-07
-9.66885e-07
-9.76933e-07
-9.7586e-07
-9.71386e-07
-9.57024e-07
-9.69038e-07
-9.69038e-07
-9.69038e-07
-9.69039e-07
-9.75688e-07
-9.76785e-07
-9.66885e-07
-9.69038e-07
-9.69038e-07
-9.69038e-07
-9.69038e-07
-9.69038e-07
-9.69039e-07
-9.89488e-07
-9.8461e-07
-9.74494e-07
-9.65226e-07
-9.69038e-07
-9.69038e-07
-9.69038e-07
-9.69038e-07
-9.69038e-07
-9.69039e-07
-9.94872e-07
-9.83955e-07
-9.75116e-07
-9.63695e-07
-9.69038e-07
-9.69038e-07
-9.69038e-07
-9.69038e-07
-9.69038e-07
-9.69039e-07
-9.95166e-07
-9.7815e-07
-9.6688e-07
-9.69038e-07
-9.69038e-07
-9.69038e-07
-9.69038e-07
-9.69038e-07
-9.69039e-07
-9.93417e-07
-9.90476e-07
-9.76929e-07
-9.75695e-07
-9.69038e-07
-9.69038e-07
-9.69038e-07
-9.69039e-07
-1.00341e-06
-9.85148e-07
-9.81744e-07
-9.75872e-07
-9.76788e-07
-9.8949e-07
-9.94875e-07
-9.95167e-07
-9.93436e-07
-9.8517e-07
-9.91033e-07
-9.84613e-07
-9.83956e-07
-9.78147e-07
-9.90482e-07
-9.81752e-07
-9.60804e-07
-9.61429e-07
-9.57708e-07
-9.53198e-07
-9.51538e-07
-9.5001e-07
-9.53194e-07
-9.63243e-07
-9.62183e-07
-9.57701e-07
-9.43338e-07
-9.55352e-07
-9.55352e-07
-9.55353e-07
-9.55353e-07
-9.62002e-07
-9.63104e-07
-9.53199e-07
-9.55352e-07
-9.55352e-07
-9.55352e-07
-9.55353e-07
-9.55353e-07
-9.55353e-07
-9.75804e-07
-9.70925e-07
-9.60807e-07
-9.5154e-07
-9.55353e-07
-9.55352e-07
-9.55353e-07
-9.55353e-07
-9.55353e-07
-9.55353e-07
-9.81187e-07
-9.7027e-07
-9.6143e-07
-9.50009e-07
-9.55353e-07
-9.55352e-07
-9.55353e-07
-9.55353e-07
-9.55353e-07
-9.55353e-07
-9.81481e-07
-9.64465e-07
-9.53194e-07
-9.55353e-07
-9.55353e-07
-9.55353e-07
-9.55353e-07
-9.55353e-07
-9.55353e-07
-9.79732e-07
-9.7679e-07
-9.63244e-07
-9.62009e-07
-9.55353e-07
-9.55353e-07
-9.55353e-07
-9.55353e-07
-9.8972e-07
-9.71462e-07
-9.68059e-07
-9.62186e-07
-9.63102e-07
-9.75804e-07
-9.8119e-07
-9.81484e-07
-9.79753e-07
-9.71485e-07
-9.77348e-07
-9.70928e-07
-9.7027e-07
-9.64463e-07
-9.76796e-07
-9.68066e-07
-9.47119e-07
-9.47743e-07
-9.44024e-07
-9.39513e-07
-9.37852e-07
-9.36324e-07
-9.39509e-07
-9.49558e-07
-9.48497e-07
-9.44015e-07
-9.29652e-07
-9.41666e-07
-9.41666e-07
-9.41666e-07
-9.41667e-07
-9.48316e-07
-9.49417e-07
-9.39513e-07
-9.41666e-07
-9.41666e-07
-9.41667e-07
-9.41667e-07
-9.41667e-07
-9.41667e-07
-9.62118e-07
-9.57239e-07
-9.47122e-07
-9.37854e-07
-9.41666e-07
-9.41666e-07
-9.41666e-07
-9.41667e-07
-9.41667e-07
-9.41667e-07
-9.67501e-07
-9.56584e-07
-9.47744e-07
-9.36323e-07
-9.41666e-07
-9.41666e-07
-9.41666e-07
-9.41667e-07
-9.41667e-07
-9.41667e-07
-9.67794e-07
-9.50779e-07
-9.39508e-07
-9.41667e-07
-9.41666e-07
-9.41667e-07
-9.41667e-07
-9.41667e-07
-9.41667e-07
-9.66045e-07
-9.63104e-07
-9.49558e-07
-9.48324e-07
-9.41667e-07
-9.41667e-07
-9.41667e-07
-9.41667e-07
-9.76034e-07
-9.57776e-07
-9.54373e-07
-9.48501e-07
-9.49417e-07
-9.62119e-07
-9.67505e-07
-9.67798e-07
-9.66067e-07
-9.57798e-07
-9.63662e-07
-9.57242e-07
-9.56585e-07
-9.50778e-07
-9.6311e-07
-9.54377e-07
-9.33433e-07
-9.34058e-07
-9.30339e-07
-9.25827e-07
-9.24167e-07
-9.22638e-07
-9.25822e-07
-9.35872e-07
-9.34811e-07
-9.30329e-07
-9.15967e-07
-9.2798e-07
-9.2798e-07
-9.2798e-07
-9.2798e-07
-9.34628e-07
-9.3573e-07
-9.25828e-07
-9.2798e-07
-9.2798e-07
-9.2798e-07
-9.2798e-07
-9.2798e-07
-9.2798e-07
-9.48431e-07
-9.43552e-07
-9.33436e-07
-9.24169e-07
-9.2798e-07
-9.2798e-07
-9.2798e-07
-9.2798e-07
-9.2798e-07
-9.2798e-07
-9.53814e-07
-9.42898e-07
-9.34059e-07
-9.22637e-07
-9.2798e-07
-9.2798e-07
-9.2798e-07
-9.2798e-07
-9.2798e-07
-9.2798e-07
-9.54108e-07
-9.37092e-07
-9.25822e-07
-9.2798e-07
-9.2798e-07
-9.2798e-07
-9.2798e-07
-9.2798e-07
-9.2798e-07
-9.52359e-07
-9.49418e-07
-9.35872e-07
-9.34637e-07
-9.2798e-07
-9.2798e-07
-9.2798e-07
-9.2798e-07
-9.62347e-07
-9.4409e-07
-9.40686e-07
-9.34814e-07
-9.3573e-07
-9.48433e-07
-9.53819e-07
-9.54112e-07
-9.52381e-07
-9.44111e-07
-9.49975e-07
-9.43556e-07
-9.42899e-07
-9.37092e-07
-9.49424e-07
-9.40691e-07
-9.19746e-07
-9.2037e-07
-9.16652e-07
-9.12139e-07
-9.10479e-07
-9.08951e-07
-9.12135e-07
-9.22185e-07
-9.21124e-07
-9.16642e-07
-9.0228e-07
-9.14293e-07
-9.14293e-07
-9.14293e-07
-9.14293e-07
-9.20941e-07
-9.22042e-07
-9.12141e-07
-9.14293e-07
-9.14293e-07
-9.14293e-07
-9.14293e-07
-9.14293e-07
-9.14293e-07
-9.34744e-07
-9.29865e-07
-9.19749e-07
-9.10482e-07
-9.14293e-07
-9.14293e-07
-9.14293e-07
-9.14293e-07
-9.14293e-07
-9.14293e-07
-9.40127e-07
-9.29211e-07
-9.20372e-07
-9.0895e-07
-9.14293e-07
-9.14293e-07
-9.14293e-07
-9.14293e-07
-9.14293e-07
-9.14293e-07
-9.40421e-07
-9.23405e-07
-9.12135e-07
-9.14293e-07
-9.14293e-07
-9.14293e-07
-9.14293e-07
-9.14293e-07
-9.14293e-07
-9.38672e-07
-9.35731e-07
-9.22185e-07
-9.2095e-07
-9.14293e-07
-9.14293e-07
-9.14293e-07
-9.14293e-07
-9.4866e-07
-9.30402e-07
-9.26999e-07
-9.21127e-07
-9.22043e-07
-9.34745e-07
-9.40131e-07
-9.40424e-07
-9.38693e-07
-9.30424e-07
-9.36288e-07
-9.29869e-07
-9.29212e-07
-9.23404e-07
-9.35735e-07
-9.27003e-07
-9.06059e-07
-9.06684e-07
-9.02964e-07
-8.98452e-07
-8.96792e-07
-8.95264e-07
-8.98449e-07
-9.08497e-07
-9.07436e-07
-9.02955e-07
-8.88593e-07
-9.00606e-07
-9.00606e-07
-9.00606e-07
-9.00606e-07
-9.07254e-07
-9.08356e-07
-8.98453e-07
-9.00606e-07
-9.00606e-07
-9.00606e-07
-9.00606e-07
-9.00606e-07
-9.00606e-07
-9.21057e-07
-9.16178e-07
-9.06062e-07
-8.96794e-07
-9.00606e-07
-9.00606e-07
-9.00606e-07
-9.00606e-07
-9.00606e-07
-9.00606e-07
-9.26439e-07
-9.15523e-07
-9.06684e-07
-8.95263e-07
-9.00606e-07
-9.00606e-07
-9.00606e-07
-9.00606e-07
-9.00606e-07
-9.00606e-07
-9.26733e-07
-9.09718e-07
-8.98448e-07
-9.00606e-07
-9.00606e-07
-9.00606e-07
-9.00606e-07
-9.00606e-07
-9.00606e-07
-9.24984e-07
-9.22043e-07
-9.08498e-07
-9.07263e-07
-9.00606e-07
-9.00606e-07
-9.00606e-07
-9.00606e-07
-9.34972e-07
-9.16715e-07
-9.13312e-07
-9.0744e-07
-9.08356e-07
-9.21058e-07
-9.26444e-07
-9.26737e-07
-9.25006e-07
-9.16737e-07
-9.22601e-07
-9.16182e-07
-9.15524e-07
-9.09717e-07
-9.22048e-07
-9.13316e-07
-8.92371e-07
-8.92996e-07
-8.89277e-07
-8.84765e-07
-8.83104e-07
-8.81577e-07
-8.84762e-07
-8.94811e-07
-8.93749e-07
-8.89267e-07
-8.74906e-07
-8.86919e-07
-8.86919e-07
-8.86919e-07
-8.86919e-07
-8.93567e-07
-8.94669e-07
-8.84766e-07
-8.86919e-07
-8.86918e-07
-8.86919e-07
-8.86919e-07
-8.86919e-07
-8.86919e-07
-9.07369e-07
-9.0249e-07
-8.92374e-07
-8.83107e-07
-8.86919e-07
-8.86919e-07
-8.86919e-07
-8.86919e-07
-8.86919e-07
-8.86919e-07
-9.12752e-07
-9.01836e-07
-8.92997e-07
-8.81575e-07
-8.86919e-07
-8.86918e-07
-8.86919e-07
-8.86919e-07
-8.86919e-07
-8.86919e-07
-9.13046e-07
-8.9603e-07
-8.8476e-07
-8.86919e-07
-8.86919e-07
-8.86919e-07
-8.86919e-07
-8.86919e-07
-8.86919e-07
-9.11297e-07
-9.08356e-07
-8.9481e-07
-8.93576e-07
-8.86919e-07
-8.86919e-07
-8.86919e-07
-8.86919e-07
-9.21285e-07
-9.03028e-07
-8.99625e-07
-8.93753e-07
-8.94669e-07
-9.07371e-07
-9.12757e-07
-9.1305e-07
-9.11318e-07
-9.03049e-07
-9.08913e-07
-9.02494e-07
-9.01837e-07
-8.9603e-07
-9.08361e-07
-8.99629e-07
-8.78684e-07
-8.79309e-07
-8.7559e-07
-8.71077e-07
-8.69417e-07
-8.6789e-07
-8.71075e-07
-8.81123e-07
-8.80061e-07
-8.7558e-07
-8.61218e-07
-8.73231e-07
-8.73231e-07
-8.73231e-07
-8.73231e-07
-8.79879e-07
-8.80981e-07
-8.71079e-07
-8.73231e-07
-8.73231e-07
-8.73231e-07
-8.73231e-07
-8.73231e-07
-8.73231e-07
-8.93682e-07
-8.88803e-07
-8.78687e-07
-8.6942e-07
-8.73231e-07
-8.73231e-07
-8.73231e-07
-8.73231e-07
-8.73231e-07
-8.73231e-07
-8.99065e-07
-8.88149e-07
-8.7931e-07
-8.67888e-07
-8.73231e-07
-8.7323e-07
-8.73231e-07
-8.73231e-07
-8.73231e-07
-8.73231e-07
-8.99359e-07
-8.82343e-07
-8.71073e-07
-8.73231e-07
-8.73231e-07
-8.73231e-07
-8.73231e-07
-8.73231e-07
-8.73231e-07
-8.9761e-07
-8.94669e-07
-8.81123e-07
-8.79888e-07
-8.73231e-07
-8.73231e-07
-8.73232e-07
-8.73231e-07
-9.07598e-07
-8.8934e-07
-8.85937e-07
-8.80065e-07
-8.80981e-07
-8.93683e-07
-8.9907e-07
-8.99363e-07
-8.97631e-07
-8.89362e-07
-8.95226e-07
-8.88807e-07
-8.8815e-07
-8.82342e-07
-8.94674e-07
-8.85941e-07
-8.64996e-07
-8.65621e-07
-8.61902e-07
-8.5739e-07
-8.55729e-07
-8.54202e-07
-8.57388e-07
-8.67436e-07
-8.66375e-07
-8.61892e-07
-8.47531e-07
-8.59544e-07
-8.59544e-07
-8.59544e-07
-8.59544e-07
-8.66193e-07
-8.67294e-07
-8.57391e-07
-8.59544e-07
-8.59544e-07
-8.59544e-07
-8.59544e-07
-8.59544e-07
-8.59544e-07
-8.79995e-07
-8.75116e-07
-8.64999e-07
-8.55732e-07
-8.59544e-07
-8.59544e-07
-8.59544e-07
-8.59544e-07
-8.59544e-07
-8.59544e-07
-8.85377e-07
-8.74461e-07
-8.65621e-07
-8.54202e-07
-8.59544e-07
-8.59544e-07
-8.59544e-07
-8.59544e-07
-8.59544e-07
-8.59544e-07
-8.85671e-07
-8.68655e-07
-8.57385e-07
-8.59544e-07
-8.59544e-07
-8.59544e-07
-8.59544e-07
-8.59544e-07
-8.59544e-07
-8.83922e-07
-8.80981e-07
-8.67435e-07
-8.662e-07
-8.59544e-07
-8.59544e-07
-8.59544e-07
-8.59544e-07
-8.9391e-07
-8.75653e-07
-8.72249e-07
-8.66378e-07
-8.67294e-07
-8.79998e-07
-8.85384e-07
-8.85678e-07
-8.83944e-07
-8.75675e-07
-8.81538e-07
-8.75119e-07
-8.74462e-07
-8.68655e-07
-8.80986e-07
-8.72254e-07
-8.5131e-07
-8.51935e-07
-8.48216e-07
-8.43704e-07
-8.42043e-07
-8.40516e-07
-8.43702e-07
-8.53748e-07
-8.52689e-07
-8.48206e-07
-8.33844e-07
-8.45858e-07
-8.45858e-07
-8.45858e-07
-8.45858e-07
-8.52512e-07
-8.53608e-07
-8.43705e-07
-8.45859e-07
-8.45858e-07
-8.45858e-07
-8.45858e-07
-8.45858e-07
-8.45858e-07
-8.66309e-07
-8.6143e-07
-8.51314e-07
-8.42047e-07
-8.45858e-07
-8.45858e-07
-8.45858e-07
-8.45858e-07
-8.45858e-07
-8.45858e-07
-8.71691e-07
-8.60775e-07
-8.51936e-07
-8.40516e-07
-8.45858e-07
-8.45858e-07
-8.45858e-07
-8.45858e-07
-8.45858e-07
-8.45858e-07
-8.71985e-07
-8.5497e-07
-8.43699e-07
-8.45858e-07
-8.45858e-07
-8.45858e-07
-8.45858e-07
-8.45858e-07
-8.45858e-07
-8.70236e-07
-8.67295e-07
-8.53749e-07
-8.52515e-07
-8.45858e-07
-8.45858e-07
-8.45858e-07
-8.45858e-07
-8.80224e-07
-8.61967e-07
-8.58564e-07
-8.52692e-07
-8.53608e-07
-8.66312e-07
-8.71697e-07
-8.71992e-07
-8.70258e-07
-8.61989e-07
-8.67852e-07
-8.61433e-07
-8.60775e-07
-8.54969e-07
-8.673e-07
-8.58568e-07
-8.37625e-07
-8.3825e-07
-8.3453e-07
-8.30019e-07
-8.28358e-07
-8.26831e-07
-8.30017e-07
-8.40063e-07
-8.39002e-07
-8.3452e-07
-8.20159e-07
-8.32172e-07
-8.32173e-07
-8.32172e-07
-8.32172e-07
-8.38826e-07
-8.39922e-07
-8.30019e-07
-8.32172e-07
-8.32172e-07
-8.32171e-07
-8.32172e-07
-8.32172e-07
-8.32172e-07
-8.52623e-07
-8.47744e-07