/*--------------------------------*- C++ -*----------------------------------*\
| =========                 |                                                 |
| \\      /  F ield         | OpenFOAM: The Open Source CFD Toolbox           |
|  \\    /   O peration     | Version:  v2012                                 |
|   \\  /    A nd           | Website:  www.openfoam.com                      |
|    \\/     M anipulation  |                                                 |
\*---------------------------------------------------------------------------*/
FoamFile
{
    version     2.0;
    format      ascii;
    class       volScalarField;
    location    "0.395";
    object      p;
}
// * * * * * * * * * * * * * * * * * * * * * * * * * * * * * * * * * * * * * //

dimensions      [0 2 -2 0 0 0 0];


internalField   nonuniform List<scalar> 
189320
(
8.30745e-07
8.3017e-07
8.24462e-07
8.2416e-07
8.23077e-07
8.22435e-07
8.23959e-07
8.25345e-07
8.21831e-07
8.24442e-07
8.21797e-07
8.22779e-07
8.2214e-07
8.22006e-07
8.22411e-07
8.22386e-07
8.23124e-07
8.24146e-07
8.22762e-07
8.21811e-07
8.21409e-07
8.21327e-07
8.21602e-07
8.22169e-07
8.21852e-07
8.25793e-07
8.30635e-07
8.23012e-07
8.22133e-07
8.21408e-07
8.21057e-07
8.20989e-07
8.21199e-07
8.21735e-07
8.22573e-07
8.24699e-07
8.30124e-07
8.22435e-07
8.22009e-07
8.21331e-07
8.20993e-07
8.20924e-07
8.2112e-07
8.21618e-07
8.22614e-07
8.22907e-07
8.23967e-07
8.22422e-07
8.21614e-07
8.21207e-07
8.21124e-07
8.21377e-07
8.21944e-07
8.22381e-07
8.33422e-07
8.2536e-07
8.22404e-07
8.22188e-07
8.21752e-07
8.21628e-07
8.21947e-07
8.22508e-07
8.21762e-07
8.25282e-07
8.21852e-07
8.23152e-07
8.2189e-07
8.22606e-07
8.22633e-07
8.22387e-07
8.21767e-07
8.21069e-07
8.2584e-07
8.24749e-07
8.22939e-07
8.33433e-07
8.2529e-07
8.1236e-07
8.12131e-07
8.13442e-07
8.11175e-07
8.11326e-07
8.11053e-07
8.11025e-07
8.11932e-07
8.12461e-07
8.13444e-07
8.12098e-07
8.05955e-07
8.05956e-07
8.05958e-07
8.05946e-07
8.08418e-07
8.09019e-07
8.11168e-07
8.05949e-07
8.05432e-07
8.05951e-07
8.05943e-07
8.05435e-07
8.05963e-07
8.06416e-07
8.09629e-07
8.12355e-07
8.1133e-07
8.05955e-07
8.05941e-07
8.0615e-07
8.06147e-07
8.05947e-07
8.05952e-07
8.06046e-07
8.09307e-07
8.1213e-07
8.11057e-07
8.05958e-07
8.05942e-07
8.06148e-07
8.06146e-07
8.05951e-07
8.05958e-07
8.06086e-07
8.08871e-07
8.11029e-07
8.05945e-07
8.05434e-07
8.05947e-07
8.05939e-07
8.05437e-07
8.05956e-07
8.06081e-07
8.0729e-07
8.11939e-07
8.08429e-07
8.05964e-07
8.05957e-07
8.05956e-07
8.05953e-07
8.03344e-07
8.07478e-07
8.108e-07
8.12466e-07
8.09024e-07
8.06422e-07
8.06047e-07
8.06087e-07
8.0608e-07
8.07464e-07
8.08002e-07
8.09636e-07
8.09316e-07
8.08873e-07
8.07291e-07
8.10796e-07
8.03828e-07
8.03407e-07
8.04806e-07
8.02951e-07
8.03229e-07
8.0324e-07
8.026e-07
8.03273e-07
8.03635e-07
8.04805e-07
8.04671e-07
7.98066e-07
7.9802e-07
7.98018e-07
7.98068e-07
8.00906e-07
8.00557e-07
8.0295e-07
7.98064e-07
7.97601e-07
7.97707e-07
7.97697e-07
7.97609e-07
7.98069e-07
7.9699e-07
8.01053e-07
8.03827e-07
8.03227e-07
7.98017e-07
7.97696e-07
7.97765e-07
7.9776e-07
7.97704e-07
7.9802e-07
7.96009e-07
8.0107e-07
8.03406e-07
8.03239e-07
7.98018e-07
7.97695e-07
7.97761e-07
7.9776e-07
7.97706e-07
7.9802e-07
7.96154e-07
8.00029e-07
8.02596e-07
7.98066e-07
7.97604e-07
7.97704e-07
7.97696e-07
7.97609e-07
7.9807e-07
7.96219e-07
7.98849e-07
8.03274e-07
8.00908e-07
7.98069e-07
7.9802e-07
7.98019e-07
7.98069e-07
7.93627e-07
7.98389e-07
8.01705e-07
8.03636e-07
8.0056e-07
7.96992e-07
7.96013e-07
7.96155e-07
7.96223e-07
7.98389e-07
7.98939e-07
8.01046e-07
8.01069e-07
8.0003e-07
7.98853e-07
8.017e-07
7.95189e-07
7.94755e-07
7.96178e-07
7.94462e-07
7.94794e-07
7.94848e-07
7.94078e-07
7.94658e-07
7.94993e-07
7.9618e-07
7.96313e-07
7.89702e-07
7.89683e-07
7.89683e-07
7.89701e-07
7.92285e-07
7.91915e-07
7.94459e-07
7.89702e-07
7.89531e-07
7.89534e-07
7.89531e-07
7.89533e-07
7.89703e-07
7.88369e-07
7.9242e-07
7.9519e-07
7.94795e-07
7.89685e-07
7.89532e-07
7.89531e-07
7.89529e-07
7.89533e-07
7.89684e-07
7.87032e-07
7.92366e-07
7.94756e-07
7.94849e-07
7.89684e-07
7.8953e-07
7.89529e-07
7.89529e-07
7.89533e-07
7.89685e-07
7.87084e-07
7.91322e-07
7.94079e-07
7.89703e-07
7.89532e-07
7.89533e-07
7.89531e-07
7.89533e-07
7.89702e-07
7.87285e-07
7.90147e-07
7.94655e-07
7.92287e-07
7.89704e-07
7.89686e-07
7.89685e-07
7.89704e-07
7.84669e-07
7.89589e-07
7.93e-07
7.94991e-07
7.91916e-07
7.88373e-07
7.87034e-07
7.87083e-07
7.87281e-07
7.89586e-07
7.90265e-07
7.92423e-07
7.92362e-07
7.91325e-07
7.90149e-07
7.93005e-07
7.86709e-07
7.86273e-07
7.87709e-07
7.86024e-07
7.86385e-07
7.86451e-07
7.85618e-07
7.8618e-07
7.86506e-07
7.87701e-07
7.87915e-07
7.81285e-07
7.81281e-07
7.81281e-07
7.81286e-07
7.83808e-07
7.83428e-07
7.86023e-07
7.81285e-07
7.8122e-07
7.81229e-07
7.81227e-07
7.81221e-07
7.81285e-07
7.7986e-07
7.8394e-07
7.86709e-07
7.86385e-07
7.81281e-07
7.81228e-07
7.81228e-07
7.81226e-07
7.81229e-07
7.81282e-07
7.78463e-07
7.83868e-07
7.86274e-07
7.8645e-07
7.81281e-07
7.81228e-07
7.81227e-07
7.81226e-07
7.8123e-07
7.81282e-07
7.78531e-07
7.82834e-07
7.85616e-07
7.81285e-07
7.8122e-07
7.81228e-07
7.81226e-07
7.81221e-07
7.81286e-07
7.78782e-07
7.81649e-07
7.86181e-07
7.83809e-07
7.81285e-07
7.81282e-07
7.81282e-07
7.81286e-07
7.76133e-07
7.81108e-07
7.84507e-07
7.86506e-07
7.83428e-07
7.7986e-07
7.78463e-07
7.78527e-07
7.78779e-07
7.81105e-07
7.8178e-07
7.83939e-07
7.83866e-07
7.82833e-07
7.81649e-07
7.84506e-07
7.78285e-07
7.77848e-07
7.79275e-07
7.77612e-07
7.77981e-07
7.78048e-07
7.77191e-07
7.77754e-07
7.78075e-07
7.79273e-07
7.79513e-07
7.72874e-07
7.72873e-07
7.72873e-07
7.72873e-07
7.75378e-07
7.74996e-07
7.77611e-07
7.72873e-07
7.72851e-07
7.72853e-07
7.72853e-07
7.7285e-07
7.72872e-07
7.71429e-07
7.7552e-07
7.78284e-07
7.77981e-07
7.72872e-07
7.72853e-07
7.72855e-07
7.72856e-07
7.72853e-07
7.72873e-07
7.70014e-07
7.75435e-07
7.77848e-07
7.78049e-07
7.72874e-07
7.72854e-07
7.72855e-07
7.72855e-07
7.72854e-07
7.72873e-07
7.70084e-07
7.74405e-07
7.77194e-07
7.72873e-07
7.72851e-07
7.72853e-07
7.72853e-07
7.72851e-07
7.72873e-07
7.70352e-07
7.73216e-07
7.77752e-07
7.75378e-07
7.72873e-07
7.72873e-07
7.72872e-07
7.72873e-07
7.67688e-07
7.72678e-07
7.76073e-07
7.78074e-07
7.74997e-07
7.71429e-07
7.70011e-07
7.70079e-07
7.70347e-07
7.72673e-07
7.73344e-07
7.75514e-07
7.75433e-07
7.74403e-07
7.73217e-07
7.76068e-07
7.69875e-07
7.69437e-07
7.70861e-07
7.69209e-07
7.69581e-07
7.69648e-07
7.68779e-07
7.69342e-07
7.69663e-07
7.70861e-07
7.71109e-07
7.64463e-07
7.64468e-07
7.64467e-07
7.64464e-07
7.66966e-07
7.66584e-07
7.69208e-07
7.64466e-07
7.64457e-07
7.6446e-07
7.6446e-07
7.64457e-07
7.64466e-07
7.63014e-07
7.67106e-07
7.69874e-07
7.69582e-07
7.64467e-07
7.64458e-07
7.64461e-07
7.64461e-07
7.64457e-07
7.64465e-07
7.61593e-07
7.67023e-07
7.69438e-07
7.69646e-07
7.64466e-07
7.64458e-07
7.6446e-07
7.64461e-07
7.64457e-07
7.64465e-07
7.6167e-07
7.65994e-07
7.6878e-07
7.64465e-07
7.64459e-07
7.6446e-07
7.6446e-07
7.64458e-07
7.64465e-07
7.61943e-07
7.64805e-07
7.69341e-07
7.66966e-07
7.64464e-07
7.64466e-07
7.64466e-07
7.64464e-07
7.59275e-07
7.64269e-07
7.67659e-07
7.69662e-07
7.66583e-07
7.63015e-07
7.61594e-07
7.6167e-07
7.61941e-07
7.64265e-07
7.6493e-07
7.671e-07
7.67024e-07
7.65995e-07
7.64803e-07
7.67656e-07
7.6147e-07
7.61033e-07
7.62455e-07
7.60805e-07
7.61177e-07
7.61243e-07
7.60372e-07
7.60935e-07
7.61256e-07
7.62455e-07
7.62705e-07
7.5606e-07
7.56059e-07
7.56059e-07
7.5606e-07
7.5856e-07
7.58179e-07
7.60804e-07
7.56059e-07
7.56057e-07
7.56058e-07
7.56058e-07
7.56058e-07
7.5606e-07
7.54611e-07
7.58702e-07
7.61469e-07
7.61178e-07
7.56059e-07
7.56058e-07
7.56058e-07
7.56058e-07
7.56058e-07
7.56059e-07
7.53188e-07
7.58619e-07
7.61032e-07
7.61243e-07
7.56059e-07
7.56057e-07
7.56058e-07
7.56058e-07
7.56058e-07
7.5606e-07
7.53265e-07
7.5759e-07
7.60374e-07
7.5606e-07
7.56058e-07
7.56058e-07
7.56058e-07
7.56058e-07
7.5606e-07
7.53541e-07
7.56398e-07
7.60934e-07
7.58559e-07
7.56059e-07
7.56059e-07
7.56059e-07
7.5606e-07
7.5087e-07
7.55862e-07
7.59252e-07
7.61255e-07
7.58177e-07
7.54609e-07
7.53185e-07
7.53261e-07
7.53535e-07
7.55858e-07
7.56523e-07
7.58696e-07
7.58616e-07
7.57589e-07
7.56397e-07
7.59251e-07
7.53065e-07
7.52628e-07
7.5405e-07
7.524e-07
7.52774e-07
7.5284e-07
7.51968e-07
7.52531e-07
7.52851e-07
7.5405e-07
7.54303e-07
7.47655e-07
7.47655e-07
7.47655e-07
7.47656e-07
7.50154e-07
7.49773e-07
7.524e-07
7.47656e-07
7.47654e-07
7.47654e-07
7.47654e-07
7.47654e-07
7.47653e-07
7.46206e-07
7.50296e-07
7.53065e-07
7.52775e-07
7.47655e-07
7.47653e-07
7.47654e-07
7.47654e-07
7.47654e-07
7.47655e-07
7.44781e-07
7.50214e-07
7.52628e-07
7.5284e-07
7.47655e-07
7.47655e-07
7.47655e-07
7.47655e-07
7.47655e-07
7.47654e-07
7.4486e-07
7.49184e-07
7.51969e-07
7.47654e-07
7.47652e-07
7.47652e-07
7.47652e-07
7.47653e-07
7.47655e-07
7.45136e-07
7.47994e-07
7.5253e-07
7.50153e-07
7.47656e-07
7.47656e-07
7.47655e-07
7.47656e-07
7.42466e-07
7.47457e-07
7.50847e-07
7.5285e-07
7.49772e-07
7.46204e-07
7.44779e-07
7.44856e-07
7.45131e-07
7.47454e-07
7.48118e-07
7.50292e-07
7.50212e-07
7.49184e-07
7.47994e-07
7.50847e-07
7.44661e-07
7.44223e-07
7.45646e-07
7.43997e-07
7.44371e-07
7.44436e-07
7.43563e-07
7.44126e-07
7.44446e-07
7.45645e-07
7.45898e-07
7.39251e-07
7.39251e-07
7.3925e-07
7.3925e-07
7.41749e-07
7.41368e-07
7.43996e-07
7.3925e-07
7.39249e-07
7.39249e-07
7.3925e-07
7.39249e-07
7.3925e-07
7.378e-07
7.41891e-07
7.4466e-07
7.4437e-07
7.3925e-07
7.39251e-07
7.3925e-07
7.39251e-07
7.3925e-07
7.39251e-07
7.36377e-07
7.41809e-07
7.44223e-07
7.44436e-07
7.3925e-07
7.39249e-07
7.39249e-07
7.39251e-07
7.39248e-07
7.3925e-07
7.36455e-07
7.4078e-07
7.43564e-07
7.39251e-07
7.3925e-07
7.3925e-07
7.3925e-07
7.39249e-07
7.39251e-07
7.36732e-07
7.39589e-07
7.44125e-07
7.41747e-07
7.3925e-07
7.3925e-07
7.3925e-07
7.3925e-07
7.34062e-07
7.39053e-07
7.42442e-07
7.44445e-07
7.41367e-07
7.37799e-07
7.36372e-07
7.36452e-07
7.36726e-07
7.39049e-07
7.39713e-07
7.41887e-07
7.41807e-07
7.4078e-07
7.39588e-07
7.42441e-07
7.36256e-07
7.35818e-07
7.37248e-07
7.35591e-07
7.35966e-07
7.36031e-07
7.35157e-07
7.35723e-07
7.36042e-07
7.37241e-07
7.37493e-07
7.30845e-07
7.30845e-07
7.30845e-07
7.30845e-07
7.33344e-07
7.32963e-07
7.35591e-07
7.30845e-07
7.30846e-07
7.30846e-07
7.30846e-07
7.30846e-07
7.30845e-07
7.29396e-07
7.33487e-07
7.36255e-07
7.35966e-07
7.30845e-07
7.30845e-07
7.30846e-07
7.30846e-07
7.30845e-07
7.30846e-07
7.27973e-07
7.33405e-07
7.35819e-07
7.36031e-07
7.30845e-07
7.30846e-07
7.30846e-07
7.30846e-07
7.30845e-07
7.30846e-07
7.28052e-07
7.32377e-07
7.35159e-07
7.30845e-07
7.30846e-07
7.30846e-07
7.30845e-07
7.30846e-07
7.30845e-07
7.28328e-07
7.31185e-07
7.35721e-07
7.33342e-07
7.30845e-07
7.30846e-07
7.30846e-07
7.30845e-07
7.25658e-07
7.30649e-07
7.34037e-07
7.36041e-07
7.32962e-07
7.29395e-07
7.27968e-07
7.28047e-07
7.28322e-07
7.30645e-07
7.31309e-07
7.33483e-07
7.33402e-07
7.32375e-07
7.31184e-07
7.34036e-07
7.27851e-07
7.27414e-07
7.28841e-07
7.27187e-07
7.27561e-07
7.27626e-07
7.26754e-07
7.27316e-07
7.27636e-07
7.28837e-07
7.29089e-07
7.22441e-07
7.22441e-07
7.22441e-07
7.2244e-07
7.24939e-07
7.24558e-07
7.27187e-07
7.22441e-07
7.22441e-07
7.22441e-07
7.22441e-07
7.22441e-07
7.22441e-07
7.20992e-07
7.25083e-07
7.27851e-07
7.27562e-07
7.22441e-07
7.22441e-07
7.22441e-07
7.22441e-07
7.22441e-07
7.22441e-07
7.19569e-07
7.25001e-07
7.27414e-07
7.27627e-07
7.22441e-07
7.22441e-07
7.22441e-07
7.22441e-07
7.22441e-07
7.22441e-07
7.19648e-07
7.23972e-07
7.26754e-07
7.22441e-07
7.22441e-07
7.22441e-07
7.22441e-07
7.22441e-07
7.22441e-07
7.19924e-07
7.2278e-07
7.27316e-07
7.24938e-07
7.22441e-07
7.2244e-07
7.2244e-07
7.22441e-07
7.17253e-07
7.22244e-07
7.25632e-07
7.27636e-07
7.24557e-07
7.2099e-07
7.19564e-07
7.19643e-07
7.19918e-07
7.2224e-07
7.22904e-07
7.25079e-07
7.24998e-07
7.23971e-07
7.22779e-07
7.25632e-07
7.19446e-07
7.19009e-07
7.20441e-07
7.18782e-07
7.19157e-07
7.19222e-07
7.18351e-07
7.1891e-07
7.19232e-07
7.20433e-07
7.20686e-07
7.14036e-07
7.14036e-07
7.14036e-07
7.14036e-07
7.16535e-07
7.16153e-07
7.18783e-07
7.14036e-07
7.14036e-07
7.14036e-07
7.14036e-07
7.14036e-07
7.14036e-07
7.12587e-07
7.16678e-07
7.19447e-07
7.19158e-07
7.14037e-07
7.14036e-07
7.14037e-07
7.14037e-07
7.14036e-07
7.14036e-07
7.11164e-07
7.16596e-07
7.1901e-07
7.19223e-07
7.14037e-07
7.14036e-07
7.14036e-07
7.14036e-07
7.14036e-07
7.14036e-07
7.11243e-07
7.15568e-07
7.1835e-07
7.14036e-07
7.14036e-07
7.14037e-07
7.14037e-07
7.14036e-07
7.14036e-07
7.11519e-07
7.14375e-07
7.18912e-07
7.16533e-07
7.14036e-07
7.14037e-07
7.14036e-07
7.14036e-07
7.08849e-07
7.1384e-07
7.17227e-07
7.19232e-07
7.16153e-07
7.12586e-07
7.11159e-07
7.11237e-07
7.11513e-07
7.13836e-07
7.145e-07
7.16674e-07
7.16594e-07
7.15566e-07
7.14375e-07
7.17228e-07
7.11042e-07
7.10605e-07
7.12033e-07
7.10378e-07
7.10753e-07
7.10817e-07
7.09947e-07
7.10506e-07
7.10827e-07
7.12028e-07
7.12281e-07
7.05632e-07
7.05632e-07
7.05632e-07
7.05632e-07
7.08131e-07
7.07749e-07
7.10378e-07
7.05632e-07
7.05632e-07
7.05632e-07
7.05632e-07
7.05632e-07
7.05632e-07
7.04183e-07
7.08274e-07
7.11042e-07
7.10753e-07
7.05632e-07
7.05632e-07
7.05632e-07
7.05632e-07
7.05632e-07
7.05632e-07
7.0276e-07
7.08192e-07
7.10605e-07
7.10818e-07
7.05632e-07
7.05632e-07
7.05632e-07
7.05632e-07
7.05632e-07
7.05632e-07
7.02839e-07
7.07163e-07
7.09946e-07
7.05632e-07
7.05632e-07
7.05632e-07
7.05632e-07
7.05632e-07
7.05632e-07
7.03115e-07
7.05971e-07
7.10507e-07
7.08129e-07
7.05632e-07
7.05632e-07
7.05632e-07
7.05632e-07
7.00445e-07
7.05435e-07
7.08823e-07
7.10828e-07
7.07748e-07
7.04181e-07
7.02755e-07
7.02833e-07
7.03109e-07
7.05431e-07
7.06096e-07
7.0827e-07
7.0819e-07
7.07162e-07
7.0597e-07
7.08823e-07
7.02638e-07
7.02201e-07
7.03629e-07
7.01974e-07
7.02348e-07
7.02413e-07
7.01542e-07
7.02103e-07
7.02426e-07
7.03623e-07
7.03876e-07
6.97228e-07
6.97228e-07
6.97228e-07
6.97228e-07
6.99727e-07
6.99345e-07
7.01974e-07
6.97228e-07
6.97228e-07
6.97228e-07
6.97228e-07
6.97228e-07
6.97228e-07
6.95779e-07
6.9987e-07
7.02638e-07
7.02349e-07
6.97228e-07
6.97228e-07
6.97228e-07
6.97228e-07
6.97228e-07
6.97228e-07
6.94356e-07
6.99788e-07
7.02201e-07
7.02414e-07
6.97228e-07
6.97228e-07
6.97228e-07
6.97228e-07
6.97228e-07
6.97228e-07
6.94435e-07
6.98759e-07
7.01541e-07
6.97228e-07
6.97228e-07
6.97228e-07
6.97228e-07
6.97228e-07
6.97228e-07
6.9471e-07
6.97567e-07
7.02103e-07
6.99724e-07
6.97228e-07
6.97228e-07
6.97228e-07
6.97228e-07
6.9204e-07
6.97031e-07
7.00419e-07
7.02423e-07
6.99344e-07
6.95777e-07
6.9435e-07
6.94429e-07
6.94704e-07
6.97027e-07
6.97691e-07
6.99865e-07
6.99785e-07
6.98757e-07
6.97566e-07
7.00419e-07
6.94233e-07
6.93796e-07
6.95224e-07
6.93569e-07
6.93944e-07
6.94009e-07
6.93137e-07
6.93697e-07
6.94019e-07
6.95219e-07
6.95471e-07
6.88823e-07
6.88823e-07
6.88823e-07
6.88823e-07
6.91322e-07
6.9094e-07
6.93569e-07
6.88823e-07
6.88823e-07
6.88823e-07
6.88823e-07
6.88823e-07
6.88823e-07
6.87374e-07
6.91465e-07
6.94233e-07
6.93944e-07
6.88823e-07
6.88823e-07
6.88823e-07
6.88823e-07
6.88823e-07
6.88823e-07
6.85951e-07
6.91383e-07
6.93797e-07
6.9401e-07
6.88823e-07
6.88823e-07
6.88823e-07
6.88823e-07
6.88823e-07
6.88823e-07
6.8603e-07
6.90354e-07
6.93137e-07
6.88823e-07
6.88823e-07
6.88823e-07
6.88823e-07
6.88823e-07
6.88823e-07
6.86306e-07
6.89162e-07
6.93698e-07
6.9132e-07
6.88823e-07
6.88823e-07
6.88823e-07
6.88823e-07
6.83636e-07
6.88626e-07
6.92014e-07
6.94019e-07
6.9094e-07
6.87372e-07
6.85945e-07
6.86024e-07
6.86299e-07
6.88622e-07
6.89287e-07
6.91461e-07
6.9138e-07
6.90353e-07
6.89161e-07
6.92014e-07
6.85828e-07
6.85392e-07
6.8682e-07
6.85165e-07
6.85539e-07
6.85604e-07
6.84733e-07
6.85294e-07
6.85614e-07
6.86814e-07
6.87067e-07
6.80419e-07
6.80419e-07
6.80419e-07
6.80419e-07
6.82917e-07
6.82536e-07
6.85165e-07
6.80419e-07
6.80419e-07
6.80419e-07
6.80419e-07
6.80419e-07
6.80419e-07
6.7897e-07
6.8306e-07
6.85829e-07
6.8554e-07
6.80419e-07
6.80419e-07
6.80419e-07
6.80419e-07
6.80419e-07
6.80419e-07
6.77546e-07
6.82978e-07
6.85392e-07
6.85605e-07
6.80419e-07
6.80419e-07
6.80419e-07
6.80419e-07
6.80419e-07
6.80419e-07
6.77626e-07
6.8195e-07
6.84732e-07
6.80419e-07
6.80419e-07
6.80419e-07
6.80419e-07
6.80419e-07
6.80419e-07
6.77901e-07
6.80758e-07
6.85294e-07
6.82915e-07
6.80419e-07
6.80419e-07
6.80419e-07
6.80419e-07
6.75231e-07
6.80222e-07
6.8361e-07
6.85614e-07
6.82535e-07
6.78968e-07
6.77541e-07
6.7762e-07
6.77895e-07
6.80218e-07
6.80882e-07
6.83056e-07
6.82976e-07
6.81949e-07
6.80757e-07
6.8361e-07
6.77424e-07
6.76987e-07
6.78415e-07
6.7676e-07
6.77134e-07
6.77199e-07
6.76328e-07
6.76889e-07
6.7721e-07
6.7841e-07
6.78662e-07
6.72014e-07
6.72014e-07
6.72014e-07
6.72014e-07
6.74513e-07
6.74132e-07
6.7676e-07
6.72014e-07
6.72014e-07
6.72014e-07
6.72014e-07
6.72014e-07
6.72014e-07
6.70564e-07
6.74656e-07
6.77424e-07
6.77135e-07
6.72014e-07
6.72014e-07
6.72014e-07
6.72014e-07
6.72014e-07
6.72014e-07
6.69142e-07
6.74574e-07
6.76988e-07
6.77201e-07
6.72014e-07
6.72014e-07
6.72014e-07
6.72014e-07
6.72014e-07
6.72014e-07
6.69221e-07
6.73545e-07
6.76328e-07
6.72014e-07
6.72014e-07
6.72014e-07
6.72014e-07
6.72014e-07
6.72014e-07
6.69497e-07
6.72353e-07
6.76889e-07
6.74511e-07
6.72014e-07
6.72014e-07
6.72014e-07
6.72014e-07
6.66827e-07
6.71817e-07
6.75205e-07
6.7721e-07
6.74131e-07
6.70564e-07
6.69137e-07
6.69217e-07
6.69491e-07
6.71814e-07
6.72478e-07
6.74652e-07
6.74572e-07
6.73544e-07
6.72352e-07
6.75205e-07
6.6902e-07
6.68583e-07
6.70011e-07
6.68356e-07
6.6873e-07
6.68795e-07
6.67925e-07
6.68484e-07
6.68801e-07
6.70006e-07
6.70258e-07
6.6361e-07
6.6361e-07
6.6361e-07
6.6361e-07
6.66108e-07
6.65727e-07
6.68356e-07
6.6361e-07
6.6361e-07
6.6361e-07
6.6361e-07
6.6361e-07
6.6361e-07
6.6216e-07
6.66252e-07
6.6902e-07
6.68731e-07
6.6361e-07
6.6361e-07
6.6361e-07
6.6361e-07
6.6361e-07
6.6361e-07
6.60738e-07
6.6617e-07
6.68583e-07
6.68796e-07
6.6361e-07
6.6361e-07
6.6361e-07
6.6361e-07
6.6361e-07
6.6361e-07
6.60817e-07
6.65141e-07
6.67923e-07
6.6361e-07
6.6361e-07
6.6361e-07
6.6361e-07
6.6361e-07
6.6361e-07
6.61093e-07
6.63949e-07
6.68485e-07
6.66107e-07
6.6361e-07
6.6361e-07
6.6361e-07
6.6361e-07
6.58422e-07
6.63413e-07
6.66801e-07
6.68805e-07
6.65726e-07
6.62159e-07
6.60732e-07
6.60811e-07
6.61086e-07
6.63409e-07
6.64073e-07
6.66247e-07
6.66167e-07
6.65138e-07
6.63947e-07
6.66801e-07
6.60616e-07
6.60179e-07
6.61607e-07
6.59952e-07
6.60326e-07
6.60391e-07
6.59521e-07
6.60081e-07
6.60397e-07
6.61602e-07
6.61854e-07
6.55206e-07
6.55206e-07
6.55206e-07
6.55206e-07
6.57704e-07
6.57323e-07
6.59952e-07
6.55206e-07
6.55206e-07
6.55206e-07
6.55206e-07
6.55206e-07
6.55206e-07
6.53756e-07
6.57847e-07
6.60616e-07
6.60327e-07
6.55206e-07
6.55206e-07
6.55206e-07
6.55206e-07
6.55206e-07
6.55206e-07
6.52333e-07
6.57765e-07
6.60179e-07
6.60392e-07
6.55206e-07
6.55206e-07
6.55206e-07
6.55206e-07
6.55206e-07
6.55206e-07
6.52413e-07
6.56737e-07
6.59519e-07
6.55206e-07
6.55206e-07
6.55206e-07
6.55206e-07
6.55206e-07
6.55206e-07
6.52688e-07
6.55545e-07
6.60081e-07
6.57703e-07
6.55206e-07
6.55206e-07
6.55206e-07
6.55206e-07
6.50018e-07
6.55009e-07
6.58397e-07
6.60401e-07
6.57322e-07
6.53756e-07
6.5233e-07
6.52409e-07
6.52683e-07
6.55005e-07
6.55669e-07
6.57844e-07
6.57763e-07
6.56736e-07
6.55543e-07
6.58397e-07
6.52211e-07
6.51775e-07
6.53203e-07
6.51547e-07
6.51922e-07
6.51987e-07
6.51116e-07
6.51676e-07
6.51993e-07
6.53197e-07
6.5345e-07
6.46801e-07
6.46801e-07
6.46801e-07
6.46801e-07
6.493e-07
6.48919e-07
6.51547e-07
6.46801e-07
6.46801e-07
6.46801e-07
6.46801e-07
6.46801e-07
6.46801e-07
6.45352e-07
6.49443e-07
6.52212e-07
6.51923e-07
6.46801e-07
6.46801e-07
6.46801e-07
6.46801e-07
6.46801e-07
6.46801e-07
6.43929e-07
6.49361e-07
6.51775e-07
6.51988e-07
6.46801e-07
6.46801e-07
6.46801e-07
6.46801e-07
6.46801e-07
6.46801e-07
6.44008e-07
6.48333e-07
6.51115e-07
6.46801e-07
6.46802e-07
6.46801e-07
6.46801e-07
6.46802e-07
6.46801e-07
6.44284e-07
6.4714e-07
6.51677e-07
6.49298e-07
6.46801e-07
6.46801e-07
6.46801e-07
6.46801e-07
6.41614e-07
6.46605e-07
6.49992e-07
6.51997e-07
6.48918e-07
6.45351e-07
6.43926e-07
6.44004e-07
6.44278e-07
6.46601e-07
6.47265e-07
6.49439e-07
6.49359e-07
6.48331e-07
6.47139e-07
6.49993e-07
6.43807e-07
6.4337e-07
6.44798e-07
6.43143e-07
6.43518e-07
6.43583e-07
6.42711e-07
6.43271e-07
6.43589e-07
6.44793e-07
6.45045e-07
6.38397e-07
6.38397e-07
6.38397e-07
6.38397e-07
6.40896e-07
6.40514e-07
6.43143e-07
6.38397e-07
6.38397e-07
6.38397e-07
6.38397e-07
6.38397e-07
6.38397e-07
6.36947e-07
6.41039e-07
6.43807e-07
6.43518e-07
6.38397e-07
6.38397e-07
6.38397e-07
6.38397e-07
6.38397e-07
6.38397e-07
6.35525e-07
6.40957e-07
6.43371e-07
6.43583e-07
6.38397e-07
6.38397e-07
6.38397e-07
6.38397e-07
6.38397e-07
6.38397e-07
6.35604e-07
6.39928e-07
6.42711e-07
6.38397e-07
6.38397e-07
6.38397e-07
6.38397e-07
6.38397e-07
6.38397e-07
6.3588e-07
6.38736e-07
6.43272e-07
6.40894e-07
6.38397e-07
6.38397e-07
6.38397e-07
6.38397e-07
6.3321e-07
6.382e-07
6.41588e-07
6.43593e-07
6.40514e-07
6.36947e-07
6.35521e-07
6.356e-07
6.35874e-07
6.38196e-07
6.38861e-07
6.41035e-07
6.40955e-07
6.39927e-07
6.38734e-07
6.41587e-07
6.35402e-07
6.34966e-07
6.36393e-07
6.34738e-07
6.35113e-07
6.35178e-07
6.34307e-07
6.34867e-07
6.35184e-07
6.36388e-07
6.3664e-07
6.29992e-07
6.29992e-07
6.29992e-07
6.29992e-07
6.32491e-07
6.3211e-07
6.34738e-07
6.29992e-07
6.29993e-07
6.29992e-07
6.29992e-07
6.29993e-07
6.29992e-07
6.28543e-07
6.32634e-07
6.35403e-07
6.35114e-07
6.29992e-07
6.29992e-07
6.29992e-07
6.29992e-07
6.29993e-07
6.29992e-07
6.2712e-07
6.32552e-07
6.34966e-07
6.35179e-07
6.29992e-07
6.29992e-07
6.29992e-07
6.29992e-07
6.29993e-07
6.29992e-07
6.272e-07
6.31524e-07
6.34306e-07
6.29992e-07
6.29993e-07
6.29993e-07
6.29992e-07
6.29993e-07
6.29992e-07
6.27475e-07
6.30332e-07
6.34868e-07
6.32489e-07
6.29992e-07
6.29993e-07
6.29993e-07
6.29993e-07
6.24805e-07
6.29796e-07
6.33183e-07
6.35188e-07
6.32109e-07
6.28542e-07
6.27117e-07
6.27195e-07
6.27469e-07
6.29792e-07
6.30456e-07
6.3263e-07
6.3255e-07
6.31522e-07
6.3033e-07
6.33183e-07
6.26998e-07
6.26561e-07
6.27989e-07
6.26334e-07
6.26709e-07
6.26774e-07
6.25902e-07
6.26462e-07
6.2678e-07
6.27984e-07
6.28236e-07
6.21588e-07
6.21588e-07
6.21588e-07
6.21588e-07
6.24087e-07
6.23705e-07
6.26334e-07
6.21588e-07
6.21588e-07
6.21588e-07
6.21588e-07
6.21588e-07
6.21588e-07
6.20138e-07
6.24231e-07
6.26998e-07
6.26709e-07
6.21588e-07
6.21588e-07
6.21588e-07
6.21588e-07
6.21588e-07
6.21588e-07
6.18716e-07
6.24148e-07
6.26561e-07
6.26774e-07
6.21588e-07
6.21588e-07
6.21588e-07
6.21588e-07
6.21588e-07
6.21588e-07
6.18795e-07
6.23119e-07
6.25901e-07
6.21588e-07
6.21588e-07
6.21588e-07
6.21588e-07
6.21588e-07
6.21588e-07
6.19071e-07
6.21927e-07
6.26463e-07
6.24085e-07
6.21588e-07
6.21588e-07
6.21588e-07
6.21588e-07
6.16401e-07
6.21391e-07
6.24779e-07
6.26783e-07
6.23705e-07
6.20138e-07
6.18712e-07
6.18791e-07
6.19065e-07
6.21387e-07
6.22052e-07
6.24226e-07
6.24146e-07
6.23118e-07
6.21925e-07
6.24778e-07
6.18593e-07
6.18157e-07
6.19584e-07
6.17929e-07
6.18304e-07
6.18369e-07
6.17498e-07
6.18058e-07
6.18375e-07
6.19579e-07
6.19832e-07
6.13183e-07
6.13183e-07
6.13183e-07
6.13183e-07
6.15682e-07
6.15301e-07
6.17929e-07
6.13183e-07
6.13184e-07
6.13184e-07
6.13183e-07
6.13184e-07
6.13183e-07
6.11734e-07
6.15826e-07
6.18594e-07
6.18305e-07
6.13183e-07
6.13184e-07
6.13183e-07
6.13183e-07
6.13184e-07
6.13183e-07
6.10311e-07
6.15743e-07
6.18157e-07
6.1837e-07
6.13183e-07
6.13184e-07
6.13184e-07
6.13184e-07
6.13184e-07
6.13183e-07
6.10391e-07
6.14715e-07
6.17497e-07
6.13183e-07
6.13184e-07
6.13184e-07
6.13184e-07
6.13184e-07
6.13183e-07
6.10666e-07
6.13523e-07
6.18059e-07
6.1568e-07
6.13183e-07
6.13183e-07
6.13184e-07
6.13183e-07
6.07996e-07
6.12987e-07
6.16374e-07
6.18379e-07
6.153e-07
6.11733e-07
6.10308e-07
6.10386e-07
6.1066e-07
6.12983e-07
6.13647e-07
6.15821e-07
6.15741e-07
6.14713e-07
6.13521e-07
6.16374e-07
6.10189e-07
6.09753e-07
6.1118e-07
6.09525e-07
6.099e-07
6.09965e-07
6.09093e-07
6.09653e-07
6.09971e-07
6.11175e-07
6.11428e-07
6.04779e-07
6.04779e-07
6.04779e-07
6.04779e-07
6.07278e-07
6.06896e-07
6.09525e-07
6.04779e-07
6.04779e-07
6.04779e-07
6.04779e-07
6.04779e-07
6.04779e-07
6.03329e-07
6.07422e-07
6.10189e-07
6.099e-07
6.04779e-07
6.04779e-07
6.04779e-07
6.04779e-07
6.04779e-07
6.04779e-07
6.01907e-07
6.07339e-07
6.09753e-07
6.09966e-07
6.04779e-07
6.04779e-07
6.04779e-07
6.04779e-07
6.04779e-07
6.04779e-07
6.01986e-07
6.0631e-07
6.09093e-07
6.04779e-07
6.04779e-07
6.04779e-07
6.04779e-07
6.04779e-07
6.04779e-07
6.02262e-07
6.05118e-07
6.09654e-07
6.07276e-07
6.04779e-07
6.04779e-07
6.04779e-07
6.04779e-07
5.99592e-07
6.04582e-07
6.0797e-07
6.09975e-07
6.06896e-07
6.03329e-07
6.01903e-07
6.01982e-07
6.02256e-07
6.04578e-07
6.05243e-07
6.07417e-07
6.07337e-07
6.06309e-07
6.05116e-07
6.07969e-07
6.01784e-07
6.01347e-07
6.02779e-07
6.01119e-07
6.01495e-07
6.0156e-07
6.00687e-07
6.01249e-07
6.01572e-07
6.02771e-07
6.03023e-07
5.96375e-07
5.96375e-07
5.96375e-07
5.96375e-07
5.98874e-07
5.98493e-07
6.01121e-07
5.96375e-07
5.96375e-07
5.96375e-07
5.96375e-07
5.96375e-07
5.96375e-07
5.94925e-07
5.99018e-07
6.01785e-07
6.01496e-07
5.96375e-07
5.96375e-07
5.96375e-07
5.96375e-07
5.96375e-07
5.96375e-07
5.93503e-07
5.98935e-07
6.01348e-07
6.01561e-07
5.96375e-07
5.96375e-07
5.96375e-07
5.96375e-07
5.96375e-07
5.96375e-07
5.93582e-07
5.97906e-07
6.00688e-07
5.96375e-07
5.96375e-07
5.96375e-07
5.96375e-07
5.96375e-07
5.96375e-07
5.93857e-07
5.96714e-07
6.0125e-07
5.98872e-07
5.96374e-07
5.96375e-07
5.96374e-07
5.96375e-07
5.91187e-07
5.96178e-07
5.99566e-07
6.0157e-07
5.98491e-07
5.94924e-07
5.93499e-07
5.93577e-07
5.93851e-07
5.96174e-07
5.96838e-07
5.99012e-07
5.98932e-07
5.97904e-07
5.96712e-07
5.99565e-07
5.93379e-07
5.92943e-07
5.94375e-07
5.92714e-07
5.9309e-07
5.93155e-07
5.92282e-07
5.92845e-07
5.93167e-07
5.94367e-07
5.94619e-07
5.8797e-07
5.8797e-07
5.8797e-07
5.8797e-07
5.9047e-07
5.90088e-07
5.92717e-07
5.8797e-07
5.87971e-07
5.8797e-07
5.8797e-07
5.87971e-07
5.8797e-07
5.86521e-07
5.90613e-07
5.93381e-07
5.93091e-07
5.8797e-07
5.87971e-07
5.8797e-07
5.8797e-07
5.8797e-07
5.8797e-07
5.85098e-07
5.9053e-07
5.92944e-07
5.93156e-07
5.8797e-07
5.87971e-07
5.8797e-07
5.8797e-07
5.8797e-07
5.8797e-07
5.85177e-07
5.89502e-07
5.92284e-07
5.8797e-07
5.87971e-07
5.8797e-07
5.8797e-07
5.87971e-07
5.8797e-07
5.85453e-07
5.88309e-07
5.92846e-07
5.90467e-07
5.8797e-07
5.8797e-07
5.8797e-07
5.8797e-07
5.82783e-07
5.87773e-07
5.91161e-07
5.93166e-07
5.90087e-07
5.86519e-07
5.85094e-07
5.85172e-07
5.85447e-07
5.8777e-07
5.88434e-07
5.90608e-07
5.90528e-07
5.895e-07
5.88307e-07
5.91161e-07
5.84975e-07
5.84538e-07
5.85971e-07
5.8431e-07
5.84686e-07
5.84751e-07
5.83877e-07
5.84441e-07
5.84764e-07
5.85963e-07
5.86216e-07
5.79566e-07
5.79566e-07
5.79566e-07
5.79566e-07
5.82063e-07
5.81683e-07
5.84312e-07
5.79566e-07
5.79566e-07
5.79566e-07
5.79566e-07
5.79566e-07
5.79566e-07
5.78116e-07
5.82209e-07
5.84977e-07
5.84687e-07
5.79566e-07
5.79566e-07
5.79566e-07
5.79566e-07
5.79566e-07
5.79566e-07
5.76694e-07
5.82126e-07
5.8454e-07
5.84752e-07
5.79566e-07
5.79566e-07
5.79566e-07
5.79566e-07
5.79566e-07
5.79566e-07
5.76773e-07
5.81097e-07
5.8388e-07
5.79566e-07
5.79566e-07
5.79566e-07
5.79566e-07
5.79566e-07
5.79566e-07
5.77049e-07
5.79905e-07
5.84441e-07
5.82063e-07
5.79566e-07
5.79566e-07
5.79566e-07
5.79566e-07
5.74379e-07
5.79369e-07
5.82757e-07
5.84762e-07
5.81683e-07
5.78115e-07
5.7669e-07
5.76768e-07
5.77043e-07
5.79365e-07
5.8003e-07
5.82204e-07
5.82124e-07
5.81096e-07
5.79903e-07
5.82756e-07
5.76572e-07
5.76135e-07
5.77563e-07
5.75908e-07
5.76283e-07
5.76347e-07
5.75474e-07
5.76035e-07
5.76356e-07
5.77558e-07
5.7781e-07
5.71162e-07
5.71162e-07
5.71162e-07
5.71162e-07
5.73659e-07
5.73279e-07
5.75908e-07
5.71162e-07
5.71162e-07
5.71162e-07
5.71162e-07
5.71162e-07
5.71162e-07
5.69712e-07
5.73805e-07
5.76572e-07
5.76283e-07
5.71162e-07
5.71162e-07
5.71162e-07
5.71162e-07
5.71162e-07
5.71162e-07
5.68289e-07
5.73721e-07
5.76135e-07
5.76348e-07
5.71162e-07
5.71162e-07
5.71162e-07
5.71162e-07
5.71162e-07
5.71162e-07
5.68369e-07
5.72693e-07
5.75475e-07
5.71162e-07
5.71162e-07
5.71162e-07
5.71162e-07
5.71162e-07
5.71162e-07
5.68645e-07
5.71501e-07
5.76037e-07
5.73659e-07
5.71162e-07
5.71162e-07
5.71162e-07
5.71162e-07
5.65974e-07
5.70965e-07
5.74353e-07
5.76357e-07
5.73278e-07
5.69711e-07
5.68287e-07
5.68364e-07
5.68639e-07
5.70961e-07
5.71625e-07
5.738e-07
5.7372e-07
5.72692e-07
5.71499e-07
5.74352e-07
5.68168e-07
5.67731e-07
5.69159e-07
5.67503e-07
5.67877e-07
5.67943e-07
5.6707e-07
5.67632e-07
5.67953e-07
5.69154e-07
5.69406e-07
5.62758e-07
5.62758e-07
5.62758e-07
5.62758e-07
5.65255e-07
5.64875e-07
5.67504e-07
5.62758e-07
5.62758e-07
5.62758e-07
5.62758e-07
5.62758e-07
5.62758e-07
5.61308e-07
5.65401e-07
5.68168e-07
5.67879e-07
5.62758e-07
5.62758e-07
5.62758e-07
5.62758e-07
5.62758e-07
5.62758e-07
5.59885e-07
5.65317e-07
5.67731e-07
5.67944e-07
5.62758e-07
5.62758e-07
5.62758e-07
5.62758e-07
5.62758e-07
5.62758e-07
5.59965e-07
5.64289e-07
5.67071e-07
5.62758e-07
5.62758e-07
5.62758e-07
5.62758e-07
5.62758e-07
5.62758e-07
5.6024e-07
5.63097e-07
5.67633e-07
5.65255e-07
5.62758e-07
5.62758e-07
5.62758e-07
5.62758e-07
5.5757e-07
5.62561e-07
5.65949e-07
5.67953e-07
5.64874e-07
5.61306e-07
5.59882e-07
5.5996e-07
5.60234e-07
5.62557e-07
5.63221e-07
5.65395e-07
5.65315e-07
5.64288e-07
5.63095e-07
5.65948e-07
5.59763e-07
5.59326e-07
5.60754e-07
5.59098e-07
5.59472e-07
5.59538e-07
5.58665e-07
5.59227e-07
5.59549e-07
5.60749e-07
5.61001e-07
5.54353e-07
5.54353e-07
5.54353e-07
5.54353e-07
5.56851e-07
5.5647e-07
5.59099e-07
5.54353e-07
5.54353e-07
5.54353e-07
5.54353e-07
5.54353e-07
5.54353e-07
5.52903e-07
5.56996e-07
5.59764e-07
5.59474e-07
5.54353e-07
5.54353e-07
5.54353e-07
5.54353e-07
5.54353e-07
5.54353e-07
5.51481e-07
5.56913e-07
5.59327e-07
5.59539e-07
5.54353e-07
5.54353e-07
5.54353e-07
5.54353e-07
5.54353e-07
5.54353e-07
5.5156e-07
5.55884e-07
5.58667e-07
5.54353e-07
5.54353e-07
5.54353e-07
5.54353e-07
5.54353e-07
5.54353e-07
5.51836e-07
5.54692e-07
5.59228e-07
5.5685e-07
5.54353e-07
5.54353e-07
5.54353e-07
5.54353e-07
5.49166e-07
5.54156e-07