/*--------------------------------*- C++ -*----------------------------------*\
| =========                 |                                                 |
| \\      /  F ield         | OpenFOAM: The Open Source CFD Toolbox           |
|  \\    /   O peration     | Version:  v2012                                 |
|   \\  /    A nd           | Website:  www.openfoam.com                      |
|    \\/     M anipulation  |                                                 |
\*---------------------------------------------------------------------------*/
FoamFile
{
    version     2.0;
    format      ascii;
    class       volScalarField;
    location    "0.14";
    object      p;
}
// * * * * * * * * * * * * * * * * * * * * * * * * * * * * * * * * * * * * * //

dimensions      [0 2 -2 0 0 0 0];


internalField   nonuniform List<scalar> 
189320
(
-1.31801e-06
-1.31054e-06
-1.32632e-06
-1.32822e-06
-1.3373e-06
-1.3401e-06
-1.33367e-06
-1.33205e-06
-1.33046e-06
-1.32631e-06
-1.33866e-06
-1.3393e-06
-1.34265e-06
-1.34337e-06
-1.34107e-06
-1.33889e-06
-1.33073e-06
-1.32821e-06
-1.33929e-06
-1.34426e-06
-1.34647e-06
-1.34691e-06
-1.34552e-06
-1.34181e-06
-1.33851e-06
-1.3292e-06
-1.31824e-06
-1.33732e-06
-1.34266e-06
-1.34648e-06
-1.34788e-06
-1.3481e-06
-1.34736e-06
-1.34496e-06
-1.33913e-06
-1.3301e-06
-1.31072e-06
-1.34015e-06
-1.34337e-06
-1.3469e-06
-1.3481e-06
-1.3483e-06
-1.34769e-06
-1.34565e-06
-1.34023e-06
-1.33113e-06
-1.33369e-06
-1.34107e-06
-1.34551e-06
-1.34735e-06
-1.34769e-06
-1.34663e-06
-1.34365e-06
-1.3386e-06
-1.31811e-06
-1.33207e-06
-1.33888e-06
-1.34179e-06
-1.34493e-06
-1.34562e-06
-1.34364e-06
-1.33928e-06
-1.338e-06
-1.32907e-06
-1.33044e-06
-1.33069e-06
-1.33846e-06
-1.33906e-06
-1.34018e-06
-1.33858e-06
-1.33799e-06
-1.33779e-06
-1.32917e-06
-1.33002e-06
-1.33097e-06
-1.31805e-06
-1.32902e-06
-1.33871e-06
-1.33911e-06
-1.33528e-06
-1.33193e-06
-1.33165e-06
-1.33011e-06
-1.33173e-06
-1.34135e-06
-1.33946e-06
-1.33528e-06
-1.32307e-06
-1.33546e-06
-1.33852e-06
-1.33853e-06
-1.3355e-06
-1.33921e-06
-1.34186e-06
-1.33192e-06
-1.33548e-06
-1.34541e-06
-1.34548e-06
-1.3455e-06
-1.34542e-06
-1.33545e-06
-1.35417e-06
-1.34828e-06
-1.33869e-06
-1.33164e-06
-1.33852e-06
-1.3455e-06
-1.34518e-06
-1.34519e-06
-1.34549e-06
-1.33856e-06
-1.35502e-06
-1.34866e-06
-1.3391e-06
-1.33009e-06
-1.33851e-06
-1.3455e-06
-1.34518e-06
-1.34518e-06
-1.34548e-06
-1.33854e-06
-1.35549e-06
-1.34302e-06
-1.33171e-06
-1.33549e-06
-1.34541e-06
-1.34548e-06
-1.3455e-06
-1.34541e-06
-1.33546e-06
-1.35564e-06
-1.35365e-06
-1.34132e-06
-1.3392e-06
-1.33543e-06
-1.3385e-06
-1.33852e-06
-1.33547e-06
-1.37041e-06
-1.3504e-06
-1.34475e-06
-1.33943e-06
-1.34185e-06
-1.35415e-06
-1.35502e-06
-1.35549e-06
-1.35568e-06
-1.35044e-06
-1.3546e-06
-1.34828e-06
-1.34865e-06
-1.34302e-06
-1.35366e-06
-1.34473e-06
-1.3269e-06
-1.32758e-06
-1.32313e-06
-1.31897e-06
-1.31773e-06
-1.31628e-06
-1.31891e-06
-1.32918e-06
-1.32765e-06
-1.32313e-06
-1.30937e-06
-1.32119e-06
-1.32176e-06
-1.32177e-06
-1.3212e-06
-1.32726e-06
-1.32847e-06
-1.31897e-06
-1.32118e-06
-1.3258e-06
-1.32615e-06
-1.32618e-06
-1.3258e-06
-1.32118e-06
-1.34214e-06
-1.33704e-06
-1.32688e-06
-1.31772e-06
-1.32175e-06
-1.32617e-06
-1.32633e-06
-1.32635e-06
-1.32617e-06
-1.32178e-06
-1.3477e-06
-1.33667e-06
-1.32756e-06
-1.31627e-06
-1.32174e-06
-1.32618e-06
-1.32634e-06
-1.32635e-06
-1.32616e-06
-1.32177e-06
-1.34823e-06
-1.3307e-06
-1.3189e-06
-1.32118e-06
-1.3258e-06
-1.32616e-06
-1.32618e-06
-1.3258e-06
-1.32118e-06
-1.34671e-06
-1.34323e-06
-1.32915e-06
-1.32724e-06
-1.32116e-06
-1.32175e-06
-1.32176e-06
-1.32118e-06
-1.3554e-06
-1.33771e-06
-1.33382e-06
-1.32762e-06
-1.32845e-06
-1.34214e-06
-1.34768e-06
-1.34821e-06
-1.34671e-06
-1.33775e-06
-1.34312e-06
-1.33702e-06
-1.33666e-06
-1.33068e-06
-1.34321e-06
-1.33382e-06
-1.31262e-06
-1.31328e-06
-1.30923e-06
-1.30463e-06
-1.30311e-06
-1.30156e-06
-1.30455e-06
-1.31511e-06
-1.31384e-06
-1.30922e-06
-1.29461e-06
-1.30667e-06
-1.30679e-06
-1.30679e-06
-1.30667e-06
-1.31353e-06
-1.3146e-06
-1.30462e-06
-1.30667e-06
-1.30826e-06
-1.30847e-06
-1.30849e-06
-1.30826e-06
-1.30667e-06
-1.32808e-06
-1.32296e-06
-1.31261e-06
-1.30311e-06
-1.30678e-06
-1.30848e-06
-1.30867e-06
-1.30868e-06
-1.30848e-06
-1.30679e-06
-1.33369e-06
-1.32241e-06
-1.31326e-06
-1.30156e-06
-1.30678e-06
-1.30849e-06
-1.30868e-06
-1.30868e-06
-1.30848e-06
-1.30679e-06
-1.33408e-06
-1.31627e-06
-1.30454e-06
-1.30666e-06
-1.30826e-06
-1.30848e-06
-1.30849e-06
-1.30826e-06
-1.30668e-06
-1.33243e-06
-1.32908e-06
-1.3151e-06
-1.31352e-06
-1.30666e-06
-1.30677e-06
-1.30678e-06
-1.30667e-06
-1.342e-06
-1.32345e-06
-1.31991e-06
-1.31382e-06
-1.31459e-06
-1.32807e-06
-1.33368e-06
-1.33408e-06
-1.33246e-06
-1.32348e-06
-1.32943e-06
-1.32296e-06
-1.3224e-06
-1.31626e-06
-1.32908e-06
-1.31991e-06
-1.29786e-06
-1.29851e-06
-1.29459e-06
-1.28983e-06
-1.28821e-06
-1.2866e-06
-1.28976e-06
-1.30042e-06
-1.29921e-06
-1.29459e-06
-1.27962e-06
-1.29181e-06
-1.29183e-06
-1.29183e-06
-1.29181e-06
-1.29893e-06
-1.29998e-06
-1.28983e-06
-1.2918e-06
-1.29238e-06
-1.29244e-06
-1.29245e-06
-1.29238e-06
-1.29181e-06
-1.31332e-06
-1.30829e-06
-1.29786e-06
-1.28821e-06
-1.29183e-06
-1.29244e-06
-1.2925e-06
-1.29251e-06
-1.29244e-06
-1.29184e-06
-1.31896e-06
-1.30765e-06
-1.2985e-06
-1.2866e-06
-1.29183e-06
-1.29244e-06
-1.29251e-06
-1.29251e-06
-1.29244e-06
-1.29184e-06
-1.31931e-06
-1.30147e-06
-1.28975e-06
-1.2918e-06
-1.29238e-06
-1.29244e-06
-1.29245e-06
-1.29238e-06
-1.29181e-06
-1.3175e-06
-1.31438e-06
-1.30041e-06
-1.29893e-06
-1.2918e-06
-1.29183e-06
-1.29183e-06
-1.2918e-06
-1.32755e-06
-1.30871e-06
-1.30528e-06
-1.29922e-06
-1.29998e-06
-1.31331e-06
-1.31895e-06
-1.31931e-06
-1.31751e-06
-1.30875e-06
-1.31488e-06
-1.30828e-06
-1.30765e-06
-1.30147e-06
-1.31437e-06
-1.30528e-06
-1.28293e-06
-1.28357e-06
-1.2797e-06
-1.27489e-06
-1.27321e-06
-1.27158e-06
-1.27483e-06
-1.28552e-06
-1.28435e-06
-1.2797e-06
-1.26458e-06
-1.27682e-06
-1.27683e-06
-1.27683e-06
-1.27683e-06
-1.28405e-06
-1.28511e-06
-1.27489e-06
-1.27683e-06
-1.27704e-06
-1.27707e-06
-1.27706e-06
-1.27704e-06
-1.27683e-06
-1.29839e-06
-1.29338e-06
-1.28293e-06
-1.27321e-06
-1.27683e-06
-1.27706e-06
-1.27708e-06
-1.27708e-06
-1.27707e-06
-1.27683e-06
-1.30402e-06
-1.29272e-06
-1.28357e-06
-1.27158e-06
-1.27683e-06
-1.27706e-06
-1.27708e-06
-1.27708e-06
-1.27706e-06
-1.27683e-06
-1.30435e-06
-1.28653e-06
-1.27483e-06
-1.27683e-06
-1.27704e-06
-1.27706e-06
-1.27706e-06
-1.27704e-06
-1.27683e-06
-1.30251e-06
-1.29947e-06
-1.28552e-06
-1.28405e-06
-1.27683e-06
-1.27683e-06
-1.27683e-06
-1.27683e-06
-1.31275e-06
-1.29381e-06
-1.2904e-06
-1.28435e-06
-1.28511e-06
-1.29838e-06
-1.30402e-06
-1.30436e-06
-1.30253e-06
-1.29384e-06
-1.30004e-06
-1.29339e-06
-1.29272e-06
-1.28654e-06
-1.29946e-06
-1.2904e-06
-1.26794e-06
-1.26858e-06
-1.26473e-06
-1.25989e-06
-1.25818e-06
-1.25655e-06
-1.25984e-06
-1.27054e-06
-1.26938e-06
-1.26473e-06
-1.24956e-06
-1.26183e-06
-1.26181e-06
-1.26182e-06
-1.26183e-06
-1.26908e-06
-1.27015e-06
-1.25989e-06
-1.26182e-06
-1.2619e-06
-1.2619e-06
-1.26191e-06
-1.2619e-06
-1.26182e-06
-1.28341e-06
-1.27841e-06
-1.26795e-06
-1.25818e-06
-1.26181e-06
-1.26191e-06
-1.26191e-06
-1.26191e-06
-1.26191e-06
-1.26182e-06
-1.28902e-06
-1.27774e-06
-1.26858e-06
-1.25655e-06
-1.26182e-06
-1.26191e-06
-1.26192e-06
-1.26191e-06
-1.26191e-06
-1.26182e-06
-1.28935e-06
-1.27155e-06
-1.25985e-06
-1.26182e-06
-1.2619e-06
-1.26191e-06
-1.26191e-06
-1.2619e-06
-1.26182e-06
-1.28751e-06
-1.2845e-06
-1.27054e-06
-1.26908e-06
-1.26182e-06
-1.26182e-06
-1.26182e-06
-1.26182e-06
-1.29782e-06
-1.27884e-06
-1.27543e-06
-1.26938e-06
-1.27015e-06
-1.28341e-06
-1.28903e-06
-1.28934e-06
-1.28752e-06
-1.27886e-06
-1.28508e-06
-1.27842e-06
-1.27774e-06
-1.27154e-06
-1.2845e-06
-1.27543e-06
-1.25293e-06
-1.25357e-06
-1.24973e-06
-1.24488e-06
-1.24315e-06
-1.24153e-06
-1.24484e-06
-1.25554e-06
-1.25438e-06
-1.24973e-06
-1.23453e-06
-1.2468e-06
-1.24681e-06
-1.24681e-06
-1.24681e-06
-1.25407e-06
-1.25515e-06
-1.24488e-06
-1.24681e-06
-1.24683e-06
-1.24684e-06
-1.24684e-06
-1.24683e-06
-1.24681e-06
-1.26839e-06
-1.26341e-06
-1.25294e-06
-1.24316e-06
-1.24681e-06
-1.24684e-06
-1.24684e-06
-1.24684e-06
-1.24684e-06
-1.24681e-06
-1.27401e-06
-1.26273e-06
-1.25357e-06
-1.24153e-06
-1.24681e-06
-1.24684e-06
-1.24684e-06
-1.24684e-06
-1.24684e-06
-1.24681e-06
-1.27433e-06
-1.25653e-06
-1.24484e-06
-1.24681e-06
-1.24683e-06
-1.24684e-06
-1.24684e-06
-1.24683e-06
-1.24681e-06
-1.27248e-06
-1.2695e-06
-1.25554e-06
-1.25408e-06
-1.24681e-06
-1.24681e-06
-1.24681e-06
-1.24681e-06
-1.28285e-06
-1.26385e-06
-1.26043e-06
-1.25439e-06
-1.25515e-06
-1.2684e-06
-1.27401e-06
-1.27433e-06
-1.2725e-06
-1.26387e-06
-1.27008e-06
-1.26341e-06
-1.26273e-06
-1.25653e-06
-1.2695e-06
-1.26044e-06
-1.23792e-06
-1.23856e-06
-1.23472e-06
-1.22987e-06
-1.22814e-06
-1.22651e-06
-1.22983e-06
-1.24053e-06
-1.23938e-06
-1.23472e-06
-1.21951e-06
-1.23179e-06
-1.23179e-06
-1.23179e-06
-1.23179e-06
-1.23906e-06
-1.24015e-06
-1.22987e-06
-1.23179e-06
-1.23181e-06
-1.23181e-06
-1.23181e-06
-1.23181e-06
-1.2318e-06
-1.25339e-06
-1.2484e-06
-1.23793e-06
-1.22814e-06
-1.23179e-06
-1.23181e-06
-1.23181e-06
-1.23181e-06
-1.23181e-06
-1.2318e-06
-1.25901e-06
-1.24772e-06
-1.23856e-06
-1.22651e-06
-1.23179e-06
-1.2318e-06
-1.23181e-06
-1.23181e-06
-1.23181e-06
-1.23179e-06
-1.25932e-06
-1.24153e-06
-1.22983e-06
-1.23179e-06
-1.23181e-06
-1.23181e-06
-1.23181e-06
-1.23181e-06
-1.23179e-06
-1.25748e-06
-1.25448e-06
-1.24053e-06
-1.23907e-06
-1.23179e-06
-1.23179e-06
-1.23179e-06
-1.23179e-06
-1.26784e-06
-1.24884e-06
-1.24542e-06
-1.23938e-06
-1.24014e-06
-1.25339e-06
-1.259e-06
-1.25932e-06
-1.25749e-06
-1.24886e-06
-1.25508e-06
-1.2484e-06
-1.24772e-06
-1.24152e-06
-1.25449e-06
-1.24542e-06
-1.22291e-06
-1.22355e-06
-1.21971e-06
-1.21486e-06
-1.21312e-06
-1.21149e-06
-1.21482e-06
-1.22552e-06
-1.22437e-06
-1.21971e-06
-1.20449e-06
-1.21678e-06
-1.21678e-06
-1.21678e-06
-1.21678e-06
-1.22406e-06
-1.22514e-06
-1.21486e-06
-1.21678e-06
-1.21678e-06
-1.21678e-06
-1.21678e-06
-1.21678e-06
-1.21678e-06
-1.23838e-06
-1.2334e-06
-1.22292e-06
-1.21312e-06
-1.21678e-06
-1.21678e-06
-1.21679e-06
-1.21678e-06
-1.21678e-06
-1.21678e-06
-1.244e-06
-1.23271e-06
-1.22355e-06
-1.21149e-06
-1.21678e-06
-1.21679e-06
-1.21679e-06
-1.21678e-06
-1.21679e-06
-1.21678e-06
-1.24431e-06
-1.22652e-06
-1.21482e-06
-1.21677e-06
-1.21678e-06
-1.21678e-06
-1.21678e-06
-1.21678e-06
-1.21678e-06
-1.24246e-06
-1.23948e-06
-1.22552e-06
-1.22406e-06
-1.21678e-06
-1.21678e-06
-1.21678e-06
-1.21678e-06
-1.25284e-06
-1.23383e-06
-1.23041e-06
-1.22437e-06
-1.22513e-06
-1.23838e-06
-1.244e-06
-1.24431e-06
-1.24248e-06
-1.23385e-06
-1.24007e-06
-1.2334e-06
-1.23271e-06
-1.22651e-06
-1.23948e-06
-1.23042e-06
-1.2079e-06
-1.20853e-06
-1.20469e-06
-1.19984e-06
-1.1981e-06
-1.19648e-06
-1.19981e-06
-1.2105e-06
-1.20935e-06
-1.20469e-06
-1.18948e-06
-1.20176e-06
-1.20176e-06
-1.20177e-06
-1.20177e-06
-1.20904e-06
-1.21012e-06
-1.19984e-06
-1.20176e-06
-1.20176e-06
-1.20176e-06
-1.20176e-06
-1.20176e-06
-1.20176e-06
-1.22336e-06
-1.21838e-06
-1.2079e-06
-1.19811e-06
-1.20176e-06
-1.20176e-06
-1.20177e-06
-1.20177e-06
-1.20176e-06
-1.20176e-06
-1.22898e-06
-1.2177e-06
-1.20854e-06
-1.19648e-06
-1.20176e-06
-1.20176e-06
-1.20177e-06
-1.20177e-06
-1.20176e-06
-1.20176e-06
-1.22929e-06
-1.2115e-06
-1.19981e-06
-1.20176e-06
-1.20176e-06
-1.20176e-06
-1.20176e-06
-1.20176e-06
-1.20177e-06
-1.22744e-06
-1.22446e-06
-1.2105e-06
-1.20905e-06
-1.20176e-06
-1.20176e-06
-1.20176e-06
-1.20176e-06
-1.23782e-06
-1.21881e-06
-1.2154e-06
-1.20935e-06
-1.21012e-06
-1.22336e-06
-1.22898e-06
-1.22929e-06
-1.22746e-06
-1.21884e-06
-1.22506e-06
-1.21838e-06
-1.21769e-06
-1.21149e-06
-1.22446e-06
-1.2154e-06
-1.19288e-06
-1.19352e-06
-1.18969e-06
-1.18483e-06
-1.18309e-06
-1.18146e-06
-1.18479e-06
-1.19548e-06
-1.19434e-06
-1.18968e-06
-1.17446e-06
-1.18675e-06
-1.18675e-06
-1.18675e-06
-1.18675e-06
-1.19403e-06
-1.19511e-06
-1.18483e-06
-1.18675e-06
-1.18675e-06
-1.18675e-06
-1.18675e-06
-1.18675e-06
-1.18675e-06
-1.20835e-06
-1.20336e-06
-1.19289e-06
-1.18309e-06
-1.18675e-06
-1.18675e-06
-1.18675e-06
-1.18675e-06
-1.18675e-06
-1.18675e-06
-1.21396e-06
-1.20268e-06
-1.19352e-06
-1.18146e-06
-1.18675e-06
-1.18675e-06
-1.18675e-06
-1.18675e-06
-1.18675e-06
-1.18675e-06
-1.21427e-06
-1.19648e-06
-1.18479e-06
-1.18675e-06
-1.18675e-06
-1.18675e-06
-1.18675e-06
-1.18675e-06
-1.18675e-06
-1.21243e-06
-1.20945e-06
-1.19549e-06
-1.19403e-06
-1.18675e-06
-1.18675e-06
-1.18675e-06
-1.18675e-06
-1.22281e-06
-1.2038e-06
-1.20038e-06
-1.19434e-06
-1.19511e-06
-1.20835e-06
-1.21396e-06
-1.21427e-06
-1.21245e-06
-1.20382e-06
-1.21004e-06
-1.20337e-06
-1.20268e-06
-1.19648e-06
-1.20945e-06
-1.20039e-06
-1.17787e-06
-1.1785e-06
-1.17467e-06
-1.16981e-06
-1.16807e-06
-1.16645e-06
-1.16978e-06
-1.18047e-06
-1.17931e-06
-1.17466e-06
-1.15944e-06
-1.17173e-06
-1.17173e-06
-1.17173e-06
-1.17173e-06
-1.17901e-06
-1.18009e-06
-1.16981e-06
-1.17173e-06
-1.17173e-06
-1.17173e-06
-1.17173e-06
-1.17173e-06
-1.17173e-06
-1.19333e-06
-1.18835e-06
-1.17787e-06
-1.16808e-06
-1.17173e-06
-1.17173e-06
-1.17173e-06
-1.17173e-06
-1.17173e-06
-1.17173e-06
-1.19894e-06
-1.18767e-06
-1.1785e-06
-1.16645e-06
-1.17173e-06
-1.17173e-06
-1.17173e-06
-1.17173e-06
-1.17173e-06
-1.17173e-06
-1.19926e-06
-1.18147e-06
-1.16978e-06
-1.17173e-06
-1.17173e-06
-1.17173e-06
-1.17173e-06
-1.17173e-06
-1.17173e-06
-1.19742e-06
-1.19443e-06
-1.18047e-06
-1.17902e-06
-1.17173e-06
-1.17173e-06
-1.17173e-06
-1.17173e-06
-1.20779e-06
-1.18878e-06
-1.18537e-06
-1.17932e-06
-1.18009e-06
-1.19334e-06
-1.19895e-06
-1.19926e-06
-1.19744e-06
-1.18881e-06
-1.19503e-06
-1.18835e-06
-1.18766e-06
-1.18146e-06
-1.19444e-06
-1.18537e-06
-1.16285e-06
-1.16349e-06
-1.15965e-06
-1.1548e-06
-1.15306e-06
-1.15143e-06
-1.15477e-06
-1.16546e-06
-1.1643e-06
-1.15965e-06
-1.14443e-06
-1.15672e-06
-1.15672e-06
-1.15672e-06
-1.15672e-06
-1.164e-06
-1.16507e-06
-1.1548e-06
-1.15672e-06
-1.15672e-06
-1.15672e-06
-1.15672e-06
-1.15672e-06
-1.15672e-06
-1.17832e-06
-1.17333e-06
-1.16285e-06
-1.15306e-06
-1.15672e-06
-1.15672e-06
-1.15672e-06
-1.15672e-06
-1.15672e-06
-1.15672e-06
-1.18393e-06
-1.17265e-06
-1.16349e-06
-1.15143e-06
-1.15672e-06
-1.15672e-06
-1.15672e-06
-1.15672e-06
-1.15672e-06
-1.15672e-06
-1.18424e-06
-1.16645e-06
-1.15476e-06
-1.15672e-06
-1.15672e-06
-1.15672e-06
-1.15672e-06
-1.15672e-06
-1.15672e-06
-1.1824e-06
-1.17942e-06
-1.16546e-06
-1.164e-06
-1.15672e-06
-1.15672e-06
-1.15672e-06
-1.15672e-06
-1.19278e-06
-1.17377e-06
-1.17035e-06
-1.16431e-06
-1.16507e-06
-1.17832e-06
-1.18393e-06
-1.18425e-06
-1.18242e-06
-1.17379e-06
-1.18001e-06
-1.17334e-06
-1.17265e-06
-1.16645e-06
-1.17942e-06
-1.17036e-06
-1.14784e-06
-1.14847e-06
-1.14464e-06
-1.13978e-06
-1.13804e-06
-1.13642e-06
-1.13975e-06
-1.15044e-06
-1.14928e-06
-1.14463e-06
-1.12941e-06
-1.1417e-06
-1.1417e-06
-1.1417e-06
-1.1417e-06
-1.14898e-06
-1.15006e-06
-1.13978e-06
-1.1417e-06
-1.1417e-06
-1.1417e-06
-1.1417e-06
-1.1417e-06
-1.1417e-06
-1.1633e-06
-1.15832e-06
-1.14784e-06
-1.13805e-06
-1.1417e-06
-1.1417e-06
-1.1417e-06
-1.1417e-06
-1.1417e-06
-1.1417e-06
-1.16891e-06
-1.15763e-06
-1.14847e-06
-1.13642e-06
-1.1417e-06
-1.1417e-06
-1.1417e-06
-1.1417e-06
-1.1417e-06
-1.1417e-06
-1.16923e-06
-1.15144e-06
-1.13975e-06
-1.1417e-06
-1.1417e-06
-1.1417e-06
-1.1417e-06
-1.1417e-06
-1.1417e-06
-1.16738e-06
-1.1644e-06
-1.15044e-06
-1.14899e-06
-1.1417e-06
-1.1417e-06
-1.1417e-06
-1.1417e-06
-1.17776e-06
-1.15875e-06
-1.15533e-06
-1.14929e-06
-1.15006e-06
-1.1633e-06
-1.16892e-06
-1.16923e-06
-1.1674e-06
-1.15878e-06
-1.165e-06
-1.15832e-06
-1.15763e-06
-1.15143e-06
-1.1644e-06
-1.15534e-06
-1.13282e-06
-1.13346e-06
-1.12962e-06
-1.12477e-06
-1.12303e-06
-1.1214e-06
-1.12474e-06
-1.13543e-06
-1.13427e-06
-1.12962e-06
-1.1144e-06
-1.12669e-06
-1.12669e-06
-1.12669e-06
-1.12669e-06
-1.13396e-06
-1.13504e-06
-1.12476e-06
-1.12669e-06
-1.12669e-06
-1.12669e-06
-1.12669e-06
-1.12669e-06
-1.12669e-06
-1.14828e-06
-1.1433e-06
-1.13282e-06
-1.12303e-06
-1.12669e-06
-1.12669e-06
-1.12669e-06
-1.12669e-06
-1.12669e-06
-1.12669e-06
-1.1539e-06
-1.14262e-06
-1.13346e-06
-1.1214e-06
-1.12669e-06
-1.12669e-06
-1.12669e-06
-1.12669e-06
-1.12669e-06
-1.12669e-06
-1.15421e-06
-1.13642e-06
-1.12473e-06
-1.12669e-06
-1.12669e-06
-1.12669e-06
-1.12669e-06
-1.12669e-06
-1.12669e-06
-1.15237e-06
-1.14938e-06
-1.13543e-06
-1.13397e-06
-1.12669e-06
-1.12669e-06
-1.12669e-06
-1.12669e-06
-1.16274e-06
-1.14374e-06
-1.14032e-06
-1.13428e-06
-1.13504e-06
-1.14829e-06
-1.1539e-06
-1.15422e-06
-1.15239e-06
-1.14376e-06
-1.14998e-06
-1.14331e-06
-1.14262e-06
-1.13641e-06
-1.14939e-06
-1.14033e-06
-1.1178e-06
-1.11844e-06
-1.11461e-06
-1.10975e-06
-1.10801e-06
-1.10639e-06
-1.10972e-06
-1.12041e-06
-1.11925e-06
-1.1146e-06
-1.09938e-06
-1.11167e-06
-1.11167e-06
-1.11167e-06
-1.11167e-06
-1.11895e-06
-1.12003e-06
-1.10975e-06
-1.11167e-06
-1.11167e-06
-1.11167e-06
-1.11167e-06
-1.11167e-06
-1.11167e-06
-1.13327e-06
-1.12829e-06
-1.11781e-06
-1.10801e-06
-1.11167e-06
-1.11167e-06
-1.11167e-06
-1.11167e-06
-1.11167e-06
-1.11167e-06
-1.13888e-06
-1.1276e-06
-1.11844e-06
-1.10638e-06
-1.11167e-06
-1.11167e-06
-1.11167e-06
-1.11167e-06
-1.11167e-06
-1.11167e-06
-1.1392e-06
-1.1214e-06
-1.10972e-06
-1.11167e-06
-1.11167e-06
-1.11167e-06
-1.11167e-06
-1.11167e-06
-1.11167e-06
-1.13735e-06
-1.13437e-06
-1.12041e-06
-1.11896e-06
-1.11167e-06
-1.11167e-06
-1.11167e-06
-1.11167e-06
-1.14773e-06
-1.12872e-06
-1.1253e-06
-1.11926e-06
-1.12003e-06
-1.13327e-06
-1.13889e-06
-1.1392e-06
-1.13737e-06
-1.12874e-06
-1.13497e-06
-1.12829e-06
-1.1276e-06
-1.1214e-06
-1.13437e-06
-1.12531e-06
-1.10279e-06
-1.10343e-06
-1.09959e-06
-1.09473e-06
-1.093e-06
-1.09137e-06
-1.09471e-06
-1.10539e-06
-1.10424e-06
-1.09958e-06
-1.08437e-06
-1.09666e-06
-1.09666e-06
-1.09666e-06
-1.09666e-06
-1.10393e-06
-1.10501e-06
-1.09473e-06
-1.09666e-06
-1.09666e-06
-1.09666e-06
-1.09666e-06
-1.09666e-06
-1.09666e-06
-1.11826e-06
-1.11327e-06
-1.10279e-06
-1.093e-06
-1.09666e-06
-1.09666e-06
-1.09666e-06
-1.09666e-06
-1.09666e-06
-1.09666e-06
-1.12387e-06
-1.11259e-06
-1.10343e-06
-1.09137e-06
-1.09666e-06
-1.09666e-06
-1.09666e-06
-1.09666e-06
-1.09666e-06
-1.09666e-06
-1.12418e-06
-1.10639e-06
-1.0947e-06
-1.09666e-06
-1.09666e-06
-1.09666e-06
-1.09666e-06
-1.09666e-06
-1.09666e-06
-1.12234e-06
-1.11935e-06
-1.10539e-06
-1.10394e-06
-1.09666e-06
-1.09666e-06
-1.09666e-06
-1.09666e-06
-1.13271e-06
-1.11371e-06
-1.11029e-06
-1.10425e-06
-1.10501e-06
-1.11826e-06
-1.12387e-06
-1.12418e-06
-1.12236e-06
-1.11373e-06
-1.11995e-06
-1.11327e-06
-1.11259e-06
-1.10638e-06
-1.11936e-06
-1.1103e-06
-1.08778e-06
-1.08841e-06
-1.08458e-06
-1.07972e-06
-1.07798e-06
-1.07636e-06
-1.07969e-06
-1.09038e-06
-1.08922e-06
-1.08457e-06
-1.06935e-06
-1.08164e-06
-1.08164e-06
-1.08164e-06
-1.08164e-06
-1.08892e-06
-1.09e-06
-1.07972e-06
-1.08164e-06
-1.08164e-06
-1.08164e-06
-1.08164e-06
-1.08164e-06
-1.08164e-06
-1.10324e-06
-1.09826e-06
-1.08778e-06
-1.07799e-06
-1.08164e-06
-1.08164e-06
-1.08164e-06
-1.08164e-06
-1.08164e-06
-1.08164e-06
-1.10885e-06
-1.09757e-06
-1.08841e-06
-1.07636e-06
-1.08164e-06
-1.08164e-06
-1.08164e-06
-1.08164e-06
-1.08164e-06
-1.08164e-06
-1.10917e-06
-1.09138e-06
-1.07969e-06
-1.08164e-06
-1.08164e-06
-1.08164e-06
-1.08164e-06
-1.08164e-06
-1.08164e-06
-1.10733e-06
-1.10434e-06
-1.09038e-06
-1.08893e-06
-1.08164e-06
-1.08164e-06
-1.08164e-06
-1.08164e-06
-1.1177e-06
-1.09869e-06
-1.09528e-06
-1.08923e-06
-1.09e-06
-1.10324e-06
-1.10886e-06
-1.10917e-06
-1.10734e-06
-1.09872e-06
-1.10494e-06
-1.09826e-06
-1.09758e-06
-1.09138e-06
-1.10434e-06
-1.09528e-06
-1.07276e-06
-1.0734e-06
-1.06957e-06
-1.06471e-06
-1.06297e-06
-1.06134e-06
-1.06468e-06
-1.07537e-06
-1.07421e-06
-1.06956e-06
-1.05434e-06
-1.06663e-06
-1.06663e-06
-1.06663e-06
-1.06663e-06
-1.07391e-06
-1.07498e-06
-1.06471e-06
-1.06663e-06
-1.06663e-06
-1.06663e-06
-1.06663e-06
-1.06663e-06
-1.06663e-06
-1.08823e-06
-1.08324e-06
-1.07276e-06
-1.06297e-06
-1.06663e-06
-1.06663e-06
-1.06663e-06
-1.06663e-06
-1.06663e-06
-1.06663e-06
-1.09384e-06
-1.08256e-06
-1.0734e-06
-1.06134e-06
-1.06663e-06
-1.06663e-06
-1.06663e-06
-1.06663e-06
-1.06663e-06
-1.06663e-06
-1.09415e-06
-1.07636e-06
-1.06467e-06
-1.06663e-06
-1.06663e-06
-1.06663e-06
-1.06663e-06
-1.06663e-06
-1.06663e-06
-1.09231e-06
-1.08933e-06
-1.07537e-06
-1.07391e-06
-1.06663e-06
-1.06663e-06
-1.06663e-06
-1.06663e-06
-1.10269e-06
-1.08368e-06
-1.08026e-06
-1.07422e-06
-1.07499e-06
-1.08823e-06
-1.09384e-06
-1.09415e-06
-1.09233e-06
-1.0837e-06
-1.08992e-06
-1.08325e-06
-1.08256e-06
-1.07636e-06
-1.08933e-06
-1.08027e-06
-1.05775e-06
-1.05838e-06
-1.05455e-06
-1.04969e-06
-1.04795e-06
-1.04633e-06
-1.04966e-06
-1.06035e-06
-1.0592e-06
-1.05454e-06
-1.03932e-06
-1.05161e-06
-1.05161e-06
-1.05161e-06
-1.05161e-06
-1.05889e-06
-1.05997e-06
-1.04969e-06
-1.05161e-06
-1.05161e-06
-1.05161e-06
-1.05161e-06
-1.05161e-06
-1.05161e-06
-1.07321e-06
-1.06823e-06
-1.05775e-06
-1.04796e-06
-1.05161e-06
-1.05161e-06
-1.05161e-06
-1.05161e-06
-1.05161e-06
-1.05161e-06
-1.07882e-06
-1.06755e-06
-1.05838e-06
-1.04633e-06
-1.05161e-06
-1.05161e-06
-1.05161e-06
-1.05161e-06
-1.05161e-06
-1.05161e-06
-1.07914e-06
-1.06135e-06
-1.04966e-06
-1.05161e-06
-1.05161e-06
-1.05161e-06
-1.05161e-06
-1.05161e-06
-1.05161e-06
-1.07729e-06
-1.07431e-06
-1.06035e-06
-1.0589e-06
-1.05161e-06
-1.05161e-06
-1.05161e-06
-1.05161e-06
-1.08767e-06
-1.06866e-06
-1.06525e-06
-1.0592e-06
-1.05997e-06
-1.07321e-06
-1.07883e-06
-1.07914e-06
-1.07732e-06
-1.06869e-06
-1.07491e-06
-1.06823e-06
-1.06755e-06
-1.06134e-06
-1.07432e-06
-1.06525e-06
-1.04273e-06
-1.04337e-06
-1.03953e-06
-1.03467e-06
-1.03294e-06
-1.03131e-06
-1.03464e-06
-1.04533e-06
-1.04418e-06
-1.03952e-06
-1.02431e-06
-1.03659e-06
-1.03659e-06
-1.03659e-06
-1.03659e-06
-1.04387e-06
-1.04495e-06
-1.03467e-06
-1.03659e-06
-1.03659e-06
-1.03659e-06
-1.03659e-06
-1.03659e-06
-1.03659e-06
-1.0582e-06
-1.05321e-06
-1.04273e-06
-1.03294e-06
-1.03659e-06
-1.03659e-06
-1.03659e-06
-1.03659e-06
-1.03659e-06
-1.03659e-06
-1.06381e-06
-1.05253e-06
-1.04337e-06
-1.03131e-06
-1.03659e-06
-1.03659e-06
-1.03659e-06
-1.03659e-06
-1.03659e-06
-1.03659e-06
-1.06412e-06
-1.04633e-06
-1.03464e-06
-1.03659e-06
-1.03659e-06
-1.03659e-06
-1.03659e-06
-1.03659e-06
-1.03659e-06
-1.06228e-06
-1.05929e-06
-1.04533e-06
-1.04388e-06
-1.03659e-06
-1.03659e-06
-1.03659e-06
-1.03659e-06
-1.07265e-06
-1.05365e-06
-1.05023e-06
-1.04419e-06
-1.04495e-06
-1.0582e-06
-1.06381e-06
-1.06412e-06
-1.0623e-06
-1.05367e-06
-1.05989e-06
-1.05321e-06
-1.05253e-06
-1.04633e-06
-1.0593e-06
-1.05023e-06
-1.02771e-06
-1.02835e-06
-1.02452e-06
-1.01966e-06
-1.01792e-06
-1.01629e-06
-1.01962e-06
-1.03032e-06
-1.02917e-06
-1.02451e-06
-1.00929e-06
-1.02158e-06
-1.02158e-06
-1.02158e-06
-1.02158e-06
-1.02886e-06
-1.02994e-06
-1.01966e-06
-1.02158e-06
-1.02158e-06
-1.02158e-06
-1.02158e-06
-1.02158e-06
-1.02158e-06
-1.04318e-06
-1.03819e-06
-1.02771e-06
-1.01792e-06
-1.02158e-06
-1.02158e-06
-1.02158e-06
-1.02158e-06
-1.02158e-06
-1.02158e-06
-1.04879e-06
-1.03751e-06
-1.02835e-06
-1.01629e-06
-1.02158e-06
-1.02158e-06
-1.02158e-06
-1.02158e-06
-1.02158e-06
-1.02158e-06
-1.0491e-06
-1.03131e-06
-1.01962e-06
-1.02158e-06
-1.02158e-06
-1.02158e-06
-1.02158e-06
-1.02158e-06
-1.02158e-06
-1.04726e-06
-1.04428e-06
-1.03032e-06
-1.02886e-06
-1.02158e-06
-1.02158e-06
-1.02158e-06
-1.02158e-06
-1.05764e-06
-1.03863e-06
-1.03521e-06
-1.02917e-06
-1.02994e-06
-1.04318e-06
-1.04879e-06
-1.04911e-06
-1.04728e-06
-1.03865e-06
-1.04487e-06
-1.0382e-06
-1.03751e-06
-1.03131e-06
-1.04428e-06
-1.03522e-06
-1.0127e-06
-1.01333e-06
-1.0095e-06
-1.00464e-06
-1.0029e-06
-1.00128e-06
-1.00461e-06
-1.0153e-06
-1.01415e-06
-1.00949e-06
-9.94276e-07
-1.00656e-06
-1.00656e-06
-1.00656e-06
-1.00656e-06
-1.01384e-06
-1.01492e-06
-1.00464e-06
-1.00656e-06
-1.00656e-06
-1.00656e-06
-1.00656e-06
-1.00656e-06
-1.00656e-06
-1.02816e-06
-1.02318e-06
-1.0127e-06
-1.00291e-06
-1.00656e-06
-1.00656e-06
-1.00656e-06
-1.00656e-06
-1.00656e-06
-1.00656e-06
-1.03377e-06
-1.0225e-06
-1.01333e-06
-1.00128e-06
-1.00656e-06
-1.00656e-06
-1.00656e-06
-1.00656e-06
-1.00656e-06
-1.00656e-06
-1.03409e-06
-1.0163e-06
-1.00461e-06
-1.00656e-06
-1.00656e-06
-1.00656e-06
-1.00656e-06
-1.00656e-06
-1.00656e-06
-1.03225e-06
-1.02926e-06
-1.0153e-06
-1.01385e-06
-1.00656e-06
-1.00656e-06
-1.00656e-06
-1.00656e-06
-1.04262e-06
-1.02361e-06
-1.0202e-06
-1.01415e-06
-1.01492e-06
-1.02816e-06
-1.03378e-06
-1.03409e-06
-1.03227e-06
-1.02364e-06
-1.02986e-06
-1.02318e-06
-1.0225e-06
-1.0163e-06
-1.02927e-06
-1.0202e-06
-9.97682e-07
-9.9832e-07
-9.94488e-07
-9.89628e-07
-9.8789e-07
-9.86264e-07
-9.89594e-07
-1.00029e-06
-9.99136e-07
-9.94478e-07
-9.79262e-07
-9.91549e-07
-9.91549e-07
-9.91549e-07
-9.91548e-07
-9.98826e-07
-9.99906e-07
-9.89627e-07
-9.91549e-07
-9.91548e-07
-9.91548e-07
-9.91548e-07
-9.91548e-07
-9.91549e-07
-1.01315e-06
-1.00816e-06
-9.97685e-07
-9.87892e-07
-9.91549e-07
-9.91548e-07
-9.91549e-07
-9.91549e-07
-9.91549e-07
-9.91549e-07
-1.01876e-06
-1.00748e-06
-9.9832e-07
-9.86262e-07
-9.91549e-07
-9.91548e-07
-9.91549e-07
-9.91549e-07
-9.91548e-07
-9.91549e-07
-1.01907e-06
-1.00128e-06
-9.89593e-07
-9.91549e-07
-9.91548e-07
-9.91549e-07
-9.91549e-07
-9.91548e-07
-9.91549e-07
-1.01723e-06
-1.01425e-06
-1.00029e-06
-9.98834e-07
-9.91549e-07
-9.91549e-07
-9.91549e-07
-9.91549e-07
-1.02761e-06
-1.0086e-06
-1.00518e-06
-9.9914e-07
-9.99906e-07
-1.01315e-06
-1.01876e-06
-1.01908e-06
-1.01725e-06
-1.00862e-06
-1.01484e-06
-1.00817e-06
-1.00748e-06
-1.00128e-06
-1.01425e-06
-1.00519e-06
-9.82667e-07
-9.83305e-07
-9.79472e-07
-9.74612e-07
-9.72874e-07
-9.71249e-07
-9.7458e-07
-9.85273e-07
-9.8412e-07
-9.79462e-07
-9.64247e-07
-9.76534e-07
-9.76534e-07
-9.76534e-07
-9.76534e-07
-9.8381e-07
-9.84891e-07
-9.74612e-07
-9.76534e-07
-9.76533e-07
-9.76534e-07
-9.76534e-07
-9.76534e-07
-9.76534e-07
-9.98134e-07
-9.93149e-07
-9.8267e-07
-9.72877e-07
-9.76534e-07
-9.76534e-07
-9.76534e-07
-9.76534e-07
-9.76534e-07
-9.76534e-07
-1.00374e-06
-9.92466e-07
-9.83305e-07
-9.71247e-07
-9.76534e-07
-9.76534e-07
-9.76534e-07
-9.76534e-07
-9.76534e-07
-9.76534e-07
-1.00406e-06
-9.86268e-07
-9.74578e-07
-9.76534e-07
-9.76534e-07
-9.76534e-07
-9.76534e-07
-9.76534e-07
-9.76534e-07
-1.00222e-06
-9.99231e-07
-9.85272e-07
-9.83819e-07
-9.76534e-07
-9.76534e-07
-9.76534e-07
-9.76534e-07
-1.01259e-06
-9.93584e-07
-9.90166e-07
-9.84125e-07
-9.8489e-07
-9.98135e-07
-1.00375e-06
-1.00406e-06
-1.00224e-06
-9.93607e-07
-9.99827e-07
-9.93153e-07
-9.92467e-07
-9.86266e-07
-9.99236e-07
-9.9017e-07
-9.67652e-07
-9.6829e-07
-9.64458e-07
-9.59597e-07
-9.5786e-07
-9.56235e-07
-9.59567e-07
-9.70259e-07
-9.69107e-07
-9.64448e-07
-9.49233e-07
-9.6152e-07
-9.6152e-07
-9.6152e-07
-9.6152e-07
-9.68796e-07
-9.69877e-07
-9.59598e-07
-9.6152e-07
-9.61519e-07
-9.6152e-07
-9.61519e-07
-9.6152e-07
-9.6152e-07
-9.8312e-07
-9.78135e-07
-9.67655e-07
-9.57863e-07
-9.6152e-07
-9.6152e-07
-9.6152e-07
-9.6152e-07
-9.6152e-07
-9.6152e-07
-9.88729e-07
-9.77452e-07
-9.68291e-07
-9.56233e-07
-9.6152e-07
-9.61519e-07
-9.6152e-07
-9.61519e-07
-9.6152e-07
-9.6152e-07
-9.89045e-07
-9.71254e-07
-9.59564e-07
-9.6152e-07
-9.6152e-07
-9.6152e-07
-9.6152e-07
-9.6152e-07
-9.6152e-07
-9.87202e-07
-9.84217e-07
-9.70258e-07
-9.68806e-07
-9.6152e-07
-9.6152e-07
-9.61521e-07
-9.6152e-07
-9.97578e-07
-9.78571e-07
-9.75152e-07
-9.69111e-07
-9.69877e-07
-9.83122e-07
-9.88734e-07
-9.89049e-07
-9.87225e-07
-9.78594e-07
-9.84814e-07
-9.78139e-07
-9.77453e-07
-9.71253e-07
-9.84222e-07
-9.75157e-07
-9.52639e-07
-9.53277e-07
-9.49445e-07
-9.44585e-07
-9.42847e-07
-9.41221e-07
-9.44553e-07
-9.55246e-07
-9.54094e-07
-9.49435e-07
-9.34219e-07
-9.46506e-07
-9.46506e-07
-9.46506e-07
-9.46506e-07
-9.53783e-07
-9.54864e-07
-9.44584e-07
-9.46506e-07
-9.46505e-07
-9.46506e-07
-9.46506e-07
-9.46506e-07
-9.46506e-07
-9.68107e-07
-9.63122e-07
-9.52643e-07
-9.4285e-07
-9.46506e-07
-9.46506e-07
-9.46506e-07
-9.46506e-07
-9.46506e-07
-9.46506e-07
-9.73716e-07
-9.62439e-07
-9.53278e-07
-9.41221e-07
-9.46506e-07
-9.46505e-07
-9.46506e-07
-9.46506e-07
-9.46506e-07
-9.46506e-07
-9.74031e-07
-9.5624e-07
-9.44551e-07
-9.46506e-07
-9.46506e-07
-9.46506e-07
-9.46506e-07
-9.46506e-07
-9.46506e-07
-9.72189e-07
-9.69204e-07
-9.55245e-07
-9.53792e-07
-9.46506e-07
-9.46506e-07
-9.46506e-07
-9.46506e-07
-9.82564e-07
-9.63557e-07
-9.60139e-07
-9.54097e-07
-9.54863e-07
-9.6811e-07
-9.73721e-07
-9.74037e-07
-9.72212e-07
-9.6358e-07
-9.698e-07
-9.63125e-07
-9.62439e-07
-9.56239e-07
-9.69209e-07
-9.60143e-07
-9.37624e-07
-9.38261e-07
-9.34429e-07
-9.29569e-07
-9.27831e-07
-9.26205e-07
-9.29537e-07
-9.40228e-07
-9.39078e-07
-9.34419e-07
-9.19203e-07
-9.31489e-07
-9.31489e-07
-9.31489e-07
-9.31489e-07
-9.38772e-07
-9.39848e-07
-9.29568e-07
-9.3149e-07
-9.31489e-07
-9.31489e-07
-9.31489e-07
-9.31489e-07
-9.31489e-07
-9.5309e-07
-9.48106e-07
-9.37627e-07
-9.27834e-07
-9.31489e-07
-9.31489e-07
-9.31489e-07
-9.31489e-07
-9.31489e-07
-9.31489e-07
-9.58699e-07
-9.47422e-07
-9.38262e-07
-9.26205e-07
-9.31489e-07
-9.31489e-07
-9.31489e-07
-9.31489e-07
-9.31489e-07
-9.31489e-07
-9.59014e-07
-9.41224e-07
-9.29535e-07
-9.31489e-07
-9.31489e-07
-9.31489e-07
-9.31489e-07
-9.31489e-07
-9.31489e-07
-9.57172e-07
-9.54187e-07
-9.40229e-07
-9.38775e-07
-9.31489e-07
-9.31489e-07
-9.31489e-07
-9.31489e-07
-9.67547e-07
-9.4854e-07
-9.45122e-07
-9.39081e-07
-9.39847e-07
-9.53094e-07
-9.58705e-07
-9.59021e-07
-9.57195e-07
-9.48563e-07
-9.54784e-07
-9.48109e-07
-9.47423e-07
-9.41223e-07
-9.54192e-07
-9.45127e-07
-9.22606e-07
-9.23243e-07
-9.19411e-07
-9.14551e-07
-9.12813e-07
-9.11187e-07
-9.14519e-07
-9.25211e-07
-9.24059e-07
-9.19402e-07
-9.04185e-07
-9.16471e-07
-9.16472e-07
-9.16471e-07
-9.16471e-07
-9.23755e-07
-9.2483e-07
-9.1455e-07
-9.16471e-07
-9.16471e-07
-9.1647e-07
-9.16471e-07
-9.16471e-07
-9.16471e-07
-9.38072e-07
-9.33088e-07
-9.22609e-07