/*--------------------------------*- C++ -*----------------------------------*\
| =========                 |                                                 |
| \\      /  F ield         | OpenFOAM: The Open Source CFD Toolbox           |
|  \\    /   O peration     | Version:  v2012                                 |
|   \\  /    A nd           | Website:  www.openfoam.com                      |
|    \\/     M anipulation  |                                                 |
\*---------------------------------------------------------------------------*/
FoamFile
{
    version     2.0;
    format      ascii;
    class       volScalarField;
    location    "0.455";
    object      p;
}
// * * * * * * * * * * * * * * * * * * * * * * * * * * * * * * * * * * * * * //

dimensions      [0 2 -2 0 0 0 0];


internalField   nonuniform List<scalar> 
189320
(
9.62004e-07
9.61187e-07
9.56067e-07
9.55957e-07
9.55194e-07
9.54567e-07
9.55918e-07
9.5735e-07
9.5356e-07
9.56055e-07
9.53893e-07
9.55017e-07
9.54484e-07
9.54395e-07
9.54688e-07
9.54644e-07
9.54859e-07
9.55957e-07
9.55005e-07
9.54247e-07
9.53925e-07
9.53863e-07
9.54088e-07
9.54516e-07
9.54042e-07
9.58034e-07
9.6205e-07
9.55124e-07
9.54476e-07
9.53923e-07
9.53629e-07
9.53572e-07
9.53756e-07
9.54189e-07
9.54731e-07
9.56423e-07
9.61154e-07
9.54553e-07
9.54389e-07
9.53862e-07
9.53573e-07
9.53514e-07
9.5369e-07
9.54103e-07
9.54841e-07
9.5459e-07
9.55913e-07
9.54686e-07
9.5409e-07
9.53759e-07
9.53692e-07
9.53906e-07
9.54348e-07
9.54554e-07
9.64744e-07
9.57346e-07
9.54646e-07
9.54522e-07
9.54199e-07
9.54111e-07
9.54351e-07
9.54757e-07
9.5391e-07
9.57246e-07
9.53563e-07
9.54867e-07
9.54055e-07
9.5475e-07
9.54861e-07
9.54564e-07
9.53922e-07
9.5333e-07
9.57804e-07
9.56487e-07
9.54619e-07
9.64758e-07
9.57255e-07
9.4381e-07
9.43567e-07
9.4469e-07
9.4212e-07
9.42296e-07
9.42001e-07
9.42002e-07
9.43406e-07
9.43916e-07
9.44693e-07
9.42806e-07
9.37103e-07
9.37167e-07
9.37168e-07
9.371e-07
9.39888e-07
9.40466e-07
9.42117e-07
9.37099e-07
9.36837e-07
9.37318e-07
9.37312e-07
9.36841e-07
9.3711e-07
9.38364e-07
9.41533e-07
9.43804e-07
9.42297e-07
9.37164e-07
9.37309e-07
9.37516e-07
9.37513e-07
9.37317e-07
9.37168e-07
9.38025e-07
9.41255e-07
9.43563e-07
9.42001e-07
9.37166e-07
9.3731e-07
9.37514e-07
9.37513e-07
9.37321e-07
9.37172e-07
9.38088e-07
9.40352e-07
9.42003e-07
9.37097e-07
9.36838e-07
9.37316e-07
9.37309e-07
9.36844e-07
9.37108e-07
9.38066e-07
9.39494e-07
9.43407e-07
9.39893e-07
9.37109e-07
9.37168e-07
9.37168e-07
9.37104e-07
9.36116e-07
9.39259e-07
9.42493e-07
9.43916e-07
9.40466e-07
9.38366e-07
9.38024e-07
9.38087e-07
9.38064e-07
9.39248e-07
9.40222e-07
9.41535e-07
9.4126e-07
9.40353e-07
9.39494e-07
9.42491e-07
9.34e-07
9.33593e-07
9.34799e-07
9.32587e-07
9.32828e-07
9.32799e-07
9.32288e-07
9.33485e-07
9.33856e-07
9.34798e-07
9.33927e-07
9.27715e-07
9.27685e-07
9.27684e-07
9.27717e-07
9.30914e-07
9.30699e-07
9.32586e-07
9.27713e-07
9.27399e-07
9.27526e-07
9.27515e-07
9.27407e-07
9.27718e-07
9.2778e-07
9.31739e-07
9.33997e-07
9.32826e-07
9.27682e-07
9.27515e-07
9.27601e-07
9.27596e-07
9.27523e-07
9.27686e-07
9.26983e-07
9.3171e-07
9.3359e-07
9.32797e-07
9.27683e-07
9.27514e-07
9.27598e-07
9.27596e-07
9.27525e-07
9.27687e-07
9.27139e-07
9.3027e-07
9.32283e-07
9.27713e-07
9.27401e-07
9.27523e-07
9.27515e-07
9.27407e-07
9.27718e-07
9.27171e-07
9.29825e-07
9.33484e-07
9.30913e-07
9.27716e-07
9.27685e-07
9.27684e-07
9.27717e-07
9.25056e-07
9.28958e-07
9.32216e-07
9.33854e-07
9.30698e-07
9.27779e-07
9.26985e-07
9.27139e-07
9.27172e-07
9.28957e-07
9.29942e-07
9.31731e-07
9.31707e-07
9.30268e-07
9.29826e-07
9.32213e-07
9.23976e-07
9.23558e-07
9.24798e-07
9.22687e-07
9.22972e-07
9.22986e-07
9.22373e-07
9.23482e-07
9.23837e-07
9.24799e-07
9.24142e-07
9.17918e-07
9.17906e-07
9.17906e-07
9.17918e-07
9.2092e-07
9.20683e-07
9.22684e-07
9.17918e-07
9.17806e-07
9.17821e-07
9.17819e-07
9.17809e-07
9.17919e-07
9.17736e-07
9.21714e-07
9.23976e-07
9.22971e-07
9.17907e-07
9.17819e-07
9.17825e-07
9.17824e-07
9.17821e-07
9.17907e-07
9.16652e-07
9.21622e-07
9.23558e-07
9.22985e-07
9.17906e-07
9.17817e-07
9.17823e-07
9.17823e-07
9.17821e-07
9.17907e-07
9.16721e-07
9.20181e-07
9.22372e-07
9.17918e-07
9.17807e-07
9.17821e-07
9.17818e-07
9.17809e-07
9.17919e-07
9.16888e-07
9.19743e-07
9.23477e-07
9.2092e-07
9.17919e-07
9.17908e-07
9.17907e-07
9.17919e-07
9.14732e-07
9.18787e-07
9.22145e-07
9.23834e-07
9.2068e-07
9.17737e-07
9.16653e-07
9.16718e-07
9.16884e-07
9.18784e-07
9.19892e-07
9.21717e-07
9.21619e-07
9.20183e-07
9.19743e-07
9.22149e-07
9.14081e-07
9.1366e-07
9.14909e-07
9.12829e-07
9.13137e-07
9.13155e-07
9.125e-07
9.1359e-07
9.13941e-07
9.14906e-07
9.14313e-07
9.08072e-07
9.08072e-07
9.08072e-07
9.08073e-07
9.1103e-07
9.10783e-07
9.12829e-07
9.08072e-07
9.08028e-07
9.08044e-07
9.08042e-07
9.0803e-07
9.08073e-07
9.07815e-07
9.11823e-07
9.14082e-07
9.13137e-07
9.08071e-07
9.08043e-07
9.08047e-07
9.08045e-07
9.08044e-07
9.08073e-07
9.06679e-07
9.11712e-07
9.13662e-07
9.13152e-07
9.08071e-07
9.08043e-07
9.08045e-07
9.08045e-07
9.08045e-07
9.08073e-07
9.06755e-07
9.10277e-07
9.12497e-07
9.08072e-07
9.08028e-07
9.08043e-07
9.08041e-07
9.08029e-07
9.08074e-07
9.06962e-07
9.09832e-07
9.13591e-07
9.11031e-07
9.08073e-07
9.08072e-07
9.08072e-07
9.08073e-07
9.04789e-07
9.08888e-07
9.12243e-07
9.1394e-07
9.10783e-07
9.07815e-07
9.06678e-07
9.06752e-07
9.0696e-07
9.08886e-07
9.09995e-07
9.1182e-07
9.11711e-07
9.10277e-07
9.09833e-07
9.12243e-07
9.04233e-07
9.03812e-07
9.05058e-07
9.02991e-07
9.03305e-07
9.03321e-07
9.02649e-07
9.03741e-07
9.04088e-07
9.05057e-07
9.04482e-07
8.98233e-07
8.98233e-07
8.98234e-07
8.98232e-07
9.01178e-07
9.0093e-07
9.0299e-07
8.98232e-07
8.98218e-07
8.98223e-07
8.98223e-07
8.98217e-07
8.98231e-07
8.97961e-07
9.01976e-07
9.04233e-07
9.03305e-07
8.98233e-07
8.98223e-07
8.98228e-07
8.98228e-07
8.98223e-07
8.98234e-07
8.96808e-07
9.01858e-07
9.03812e-07
9.03321e-07
8.98235e-07
8.98224e-07
8.98227e-07
8.98228e-07
8.98224e-07
8.98234e-07
8.96884e-07
9.00424e-07
9.02652e-07
8.98232e-07
8.98218e-07
8.98223e-07
8.98223e-07
8.98218e-07
8.98232e-07
8.97106e-07
8.99977e-07
9.03739e-07
9.01178e-07
8.98232e-07
8.98234e-07
8.98233e-07
8.98232e-07
8.94923e-07
8.99035e-07
9.02389e-07
9.04087e-07
9.00931e-07
8.97961e-07
8.96806e-07
8.96881e-07
8.97102e-07
8.99031e-07
9.00139e-07
9.01972e-07
9.01856e-07
9.00423e-07
8.99977e-07
9.02385e-07
8.94397e-07
8.93975e-07
8.95221e-07
8.93161e-07
8.93477e-07
8.9349e-07
8.92813e-07
8.93904e-07
8.94251e-07
8.95221e-07
8.94651e-07
8.88395e-07
8.884e-07
8.88399e-07
8.88396e-07
8.9134e-07
8.91092e-07
8.9316e-07
8.88397e-07
8.88392e-07
8.88396e-07
8.88396e-07
8.88392e-07
8.88398e-07
8.8812e-07
8.92137e-07
8.94396e-07
8.93478e-07
8.88399e-07
8.88394e-07
8.88398e-07
8.88398e-07
8.88393e-07
8.88398e-07
8.86962e-07
8.92019e-07
8.93975e-07
8.93488e-07
8.88398e-07
8.88394e-07
8.88397e-07
8.88398e-07
8.88393e-07
8.88398e-07
8.87043e-07
8.90586e-07
8.92814e-07
8.88397e-07
8.88393e-07
8.88395e-07
8.88396e-07
8.88393e-07
8.88397e-07
8.8727e-07
8.9014e-07
8.93903e-07
8.9134e-07
8.88396e-07
8.88399e-07
8.88399e-07
8.88396e-07
8.85086e-07
8.892e-07
8.92551e-07
8.9425e-07
8.91092e-07
8.88122e-07
8.86963e-07
8.87044e-07
8.87269e-07
8.89197e-07
8.90301e-07
8.92133e-07
8.9202e-07
8.90586e-07
8.90138e-07
8.92548e-07
8.84565e-07
8.84142e-07
8.8539e-07
8.83329e-07
8.83646e-07
8.83655e-07
8.82979e-07
8.84071e-07
8.84419e-07
8.8539e-07
8.8482e-07
8.78564e-07
8.78564e-07
8.78564e-07
8.78564e-07
8.81508e-07
8.81261e-07
8.83329e-07
8.78563e-07
8.78563e-07
8.78563e-07
8.78563e-07
8.78564e-07
8.78564e-07
8.7829e-07
8.82306e-07
8.84563e-07
8.83647e-07
8.78564e-07
8.78564e-07
8.78564e-07
8.78564e-07
8.78564e-07
8.78564e-07
8.7713e-07
8.82187e-07
8.84142e-07
8.83656e-07
8.78564e-07
8.78563e-07
8.78564e-07
8.78564e-07
8.78564e-07
8.78565e-07
8.77211e-07
8.80753e-07
8.8298e-07
8.78564e-07
8.78563e-07
8.78564e-07
8.78564e-07
8.78563e-07
8.78564e-07
8.77439e-07
8.80306e-07
8.8407e-07
8.81508e-07
8.78564e-07
8.78564e-07
8.78564e-07
8.78564e-07
8.75255e-07
8.79367e-07
8.82717e-07
8.84418e-07
8.8126e-07
8.78288e-07
8.77127e-07
8.77207e-07
8.77435e-07
8.79365e-07
8.8047e-07
8.82302e-07
8.82185e-07
8.80753e-07
8.80304e-07
8.82715e-07
8.74732e-07
8.7431e-07
8.75557e-07
8.73497e-07
8.73815e-07
8.73825e-07
8.73147e-07
8.74239e-07
8.74587e-07
8.75558e-07
8.7499e-07
8.68731e-07
8.68732e-07
8.68732e-07
8.68732e-07
8.71675e-07
8.71429e-07
8.73497e-07
8.68733e-07
8.68731e-07
8.68731e-07
8.68731e-07
8.68731e-07
8.6873e-07
8.68458e-07
8.72473e-07
8.74732e-07
8.73815e-07
8.68732e-07
8.68731e-07
8.68732e-07
8.68731e-07
8.68732e-07
8.68731e-07
8.67296e-07
8.72355e-07
8.7431e-07
8.73825e-07
8.68732e-07
8.68732e-07
8.68733e-07
8.68733e-07
8.68732e-07
8.68731e-07
8.67378e-07
8.7092e-07
8.73148e-07
8.6873e-07
8.6873e-07
8.6873e-07
8.6873e-07
8.6873e-07
8.68732e-07
8.67607e-07
8.70474e-07
8.74239e-07
8.71675e-07
8.68733e-07
8.68732e-07
8.68732e-07
8.68733e-07
8.65424e-07
8.69535e-07
8.72885e-07
8.74586e-07
8.71428e-07
8.68457e-07
8.67294e-07
8.67374e-07
8.67603e-07
8.69533e-07
8.70638e-07
8.7247e-07
8.72353e-07
8.7092e-07
8.70472e-07
8.72883e-07
8.649e-07
8.64478e-07
8.65726e-07
8.63666e-07
8.63984e-07
8.63993e-07
8.63314e-07
8.64407e-07
8.64755e-07
8.65726e-07
8.65158e-07
8.589e-07
8.589e-07
8.589e-07
8.58899e-07
8.61843e-07
8.61597e-07
8.63665e-07
8.58899e-07
8.58899e-07
8.58899e-07
8.589e-07
8.58899e-07
8.58899e-07
8.58625e-07
8.62641e-07
8.649e-07
8.63984e-07
8.589e-07
8.589e-07
8.589e-07
8.58901e-07
8.589e-07
8.589e-07
8.57464e-07
8.62523e-07
8.64478e-07
8.63993e-07
8.589e-07
8.58899e-07
8.58899e-07
8.589e-07
8.58898e-07
8.589e-07
8.57546e-07
8.61088e-07
8.63316e-07
8.589e-07
8.58899e-07
8.589e-07
8.589e-07
8.58899e-07
8.589e-07
8.57775e-07
8.60642e-07
8.64407e-07
8.61841e-07
8.58899e-07
8.58899e-07
8.589e-07
8.58899e-07
8.55593e-07
8.59703e-07
8.63052e-07
8.64754e-07
8.61596e-07
8.58624e-07
8.57461e-07
8.57542e-07
8.57771e-07
8.59701e-07
8.60806e-07
8.62638e-07
8.62521e-07
8.61087e-07
8.6064e-07
8.6305e-07
8.55068e-07
8.54645e-07
8.55896e-07
8.53834e-07
8.54152e-07
8.5416e-07
8.53482e-07
8.54576e-07
8.54923e-07
8.55895e-07
8.55326e-07
8.49067e-07
8.49067e-07
8.49067e-07
8.49067e-07
8.5201e-07
8.51765e-07
8.53833e-07
8.49067e-07
8.49068e-07
8.49067e-07
8.49067e-07
8.49068e-07
8.49067e-07
8.48793e-07
8.52809e-07
8.55067e-07
8.54152e-07
8.49067e-07
8.49067e-07
8.49068e-07
8.49068e-07
8.49067e-07
8.49067e-07
8.47632e-07
8.52691e-07
8.54646e-07
8.5416e-07
8.49067e-07
8.49067e-07
8.49068e-07
8.49068e-07
8.49067e-07
8.49067e-07
8.47715e-07
8.51257e-07
8.53483e-07
8.49067e-07
8.49068e-07
8.49067e-07
8.49067e-07
8.49068e-07
8.49067e-07
8.47944e-07
8.5081e-07
8.54575e-07
8.52009e-07
8.49067e-07
8.49067e-07
8.49067e-07
8.49067e-07
8.45761e-07
8.49872e-07
8.5322e-07
8.54923e-07
8.51764e-07
8.48793e-07
8.47628e-07
8.4771e-07
8.47939e-07
8.49869e-07
8.50974e-07
8.52807e-07
8.52689e-07
8.51255e-07
8.50808e-07
8.53218e-07
8.45236e-07
8.44813e-07
8.46061e-07
8.44002e-07
8.4432e-07
8.44328e-07
8.43651e-07
8.44742e-07
8.4509e-07
8.46062e-07
8.45494e-07
8.39235e-07
8.39235e-07
8.39235e-07
8.39235e-07
8.42178e-07
8.41932e-07
8.44001e-07
8.39235e-07
8.39235e-07
8.39235e-07
8.39235e-07
8.39235e-07
8.39235e-07
8.38961e-07
8.42977e-07
8.45235e-07
8.4432e-07
8.39235e-07
8.39235e-07
8.39235e-07
8.39235e-07
8.39235e-07
8.39235e-07
8.378e-07
8.42859e-07
8.44814e-07
8.44329e-07
8.39235e-07
8.39235e-07
8.39235e-07
8.39235e-07
8.39235e-07
8.39235e-07
8.37883e-07
8.41425e-07
8.43651e-07
8.39235e-07
8.39235e-07
8.39235e-07
8.39235e-07
8.39235e-07
8.39235e-07
8.38112e-07
8.40978e-07
8.44743e-07
8.42177e-07
8.39235e-07
8.39235e-07
8.39235e-07
8.39235e-07
8.35929e-07
8.4004e-07
8.43387e-07
8.4509e-07
8.41932e-07
8.3896e-07
8.37797e-07
8.37878e-07
8.38107e-07
8.40037e-07
8.41142e-07
8.42975e-07
8.42857e-07
8.41423e-07
8.40976e-07
8.43386e-07
8.35404e-07
8.34981e-07
8.36231e-07
8.3417e-07
8.34488e-07
8.34496e-07
8.3382e-07
8.34909e-07
8.35258e-07
8.3623e-07
8.35662e-07
8.29403e-07
8.29403e-07
8.29403e-07
8.29403e-07
8.32346e-07
8.321e-07
8.34169e-07
8.29403e-07
8.29403e-07
8.29403e-07
8.29403e-07
8.29403e-07
8.29403e-07
8.29129e-07
8.33144e-07
8.35403e-07
8.34488e-07
8.29403e-07
8.29403e-07
8.29403e-07
8.29403e-07
8.29403e-07
8.29403e-07
8.27968e-07
8.33027e-07
8.34982e-07
8.34497e-07
8.29403e-07
8.29403e-07
8.29403e-07
8.29403e-07
8.29403e-07
8.29403e-07
8.2805e-07
8.31592e-07
8.33819e-07
8.29403e-07
8.29403e-07
8.29403e-07
8.29403e-07
8.29403e-07
8.29403e-07
8.2828e-07
8.31145e-07
8.3491e-07
8.32345e-07
8.29403e-07
8.29403e-07
8.29403e-07
8.29403e-07
8.26097e-07
8.30207e-07
8.33555e-07
8.35258e-07
8.321e-07
8.29128e-07
8.27964e-07
8.28045e-07
8.28275e-07
8.30205e-07
8.3131e-07
8.33142e-07
8.33025e-07
8.31591e-07
8.31144e-07
8.33554e-07
8.25572e-07
8.25149e-07
8.26398e-07
8.24338e-07
8.24656e-07
8.24664e-07
8.23988e-07
8.25077e-07
8.25426e-07
8.26398e-07
8.2583e-07
8.19571e-07
8.19571e-07
8.19571e-07
8.19571e-07
8.22514e-07
8.22268e-07
8.24337e-07
8.19571e-07
8.19571e-07
8.19571e-07
8.19571e-07
8.19571e-07
8.19571e-07
8.19297e-07
8.23312e-07
8.25571e-07
8.24656e-07
8.19571e-07
8.19571e-07
8.19571e-07
8.19571e-07
8.19571e-07
8.19571e-07
8.18136e-07
8.23195e-07
8.25149e-07
8.24665e-07
8.19571e-07
8.19571e-07
8.19571e-07
8.19571e-07
8.19571e-07
8.19571e-07
8.18218e-07
8.2176e-07
8.23987e-07
8.19571e-07
8.19571e-07
8.19571e-07
8.19571e-07
8.19571e-07
8.19571e-07
8.18448e-07
8.21313e-07
8.25078e-07
8.22513e-07
8.19571e-07
8.19571e-07
8.19571e-07
8.19571e-07
8.16265e-07
8.20375e-07
8.23723e-07
8.25426e-07
8.22268e-07
8.19296e-07
8.18132e-07
8.18213e-07
8.18443e-07
8.20373e-07
8.21478e-07
8.2331e-07
8.23193e-07
8.21759e-07
8.21312e-07
8.23722e-07
8.1574e-07
8.15317e-07
8.16566e-07
8.14506e-07
8.14824e-07
8.14832e-07
8.14156e-07
8.15247e-07
8.15595e-07
8.16566e-07
8.15998e-07
8.09739e-07
8.09739e-07
8.09739e-07
8.09739e-07
8.12683e-07
8.12436e-07
8.14505e-07
8.09739e-07
8.09739e-07
8.09739e-07
8.09739e-07
8.09739e-07
8.09739e-07
8.09465e-07
8.13481e-07
8.15739e-07
8.14824e-07
8.09739e-07
8.09739e-07
8.09739e-07
8.09739e-07
8.09739e-07
8.09739e-07
8.08304e-07
8.13363e-07
8.15317e-07
8.14833e-07
8.09739e-07
8.09739e-07
8.09739e-07
8.09739e-07
8.09739e-07
8.09739e-07
8.08387e-07
8.11929e-07
8.14155e-07
8.09739e-07
8.09739e-07
8.09739e-07
8.09739e-07
8.09739e-07
8.09739e-07
8.08616e-07
8.11482e-07
8.15246e-07
8.12681e-07
8.09739e-07
8.09739e-07
8.09739e-07
8.09739e-07
8.06433e-07
8.10543e-07
8.13891e-07
8.15594e-07
8.12436e-07
8.09464e-07
8.083e-07
8.08381e-07
8.08611e-07
8.10541e-07
8.11646e-07
8.13478e-07
8.13361e-07
8.11927e-07
8.1148e-07
8.1389e-07
8.05908e-07
8.05485e-07
8.06734e-07
8.04674e-07
8.04992e-07
8.05e-07
8.04323e-07
8.05414e-07
8.05763e-07
8.06734e-07
8.06166e-07
7.99907e-07
7.99907e-07
7.99907e-07
7.99907e-07
8.02851e-07
8.02604e-07
8.04673e-07
7.99907e-07
7.99907e-07
7.99907e-07
7.99907e-07
7.99907e-07
7.99907e-07
7.99633e-07
8.03649e-07
8.05907e-07
8.04992e-07
7.99907e-07
7.99907e-07
7.99907e-07
7.99907e-07
7.99907e-07
7.99907e-07
7.98472e-07
8.03531e-07
8.05485e-07
8.05001e-07
7.99907e-07
7.99907e-07
7.99907e-07
7.99907e-07
7.99907e-07
7.99907e-07
7.98555e-07
8.02097e-07
8.04323e-07
7.99907e-07
7.99907e-07
7.99907e-07
7.99907e-07
7.99907e-07
7.99907e-07
7.98784e-07
8.0165e-07
8.05414e-07
8.02849e-07
7.99907e-07
7.99907e-07
7.99907e-07
7.99907e-07
7.96601e-07
8.00712e-07
8.04059e-07
8.05762e-07
8.02604e-07
7.99632e-07
7.98468e-07
7.98549e-07
7.98779e-07
8.00709e-07
8.01814e-07
8.03646e-07
8.03529e-07
8.02095e-07
8.01648e-07
8.04058e-07
7.96076e-07
7.95653e-07
7.96902e-07
7.94842e-07
7.9516e-07
7.95168e-07
7.94491e-07
7.95583e-07
7.95931e-07
7.96902e-07
7.96334e-07
7.90075e-07
7.90075e-07
7.90075e-07
7.90075e-07
7.93019e-07
7.92772e-07
7.94842e-07
7.90075e-07
7.90075e-07
7.90075e-07
7.90075e-07
7.90075e-07
7.90075e-07
7.89802e-07
7.93817e-07
7.96075e-07
7.9516e-07
7.90075e-07
7.90075e-07
7.90075e-07
7.90075e-07
7.90075e-07
7.90075e-07
7.88641e-07
7.93699e-07
7.95654e-07
7.95169e-07
7.90075e-07
7.90075e-07
7.90075e-07
7.90075e-07
7.90075e-07
7.90075e-07
7.88723e-07
7.92265e-07
7.94491e-07
7.90075e-07
7.90075e-07
7.90075e-07
7.90075e-07
7.90075e-07
7.90075e-07
7.88952e-07
7.91818e-07
7.95583e-07
7.93017e-07
7.90075e-07
7.90075e-07
7.90075e-07
7.90075e-07
7.86769e-07
7.9088e-07
7.94227e-07
7.95931e-07
7.92772e-07
7.89801e-07
7.88637e-07
7.88718e-07
7.88948e-07
7.90877e-07
7.91982e-07
7.93815e-07
7.93698e-07
7.92264e-07
7.91816e-07
7.94226e-07
7.86244e-07
7.85821e-07
7.8707e-07
7.8501e-07
7.85328e-07
7.85336e-07
7.8466e-07
7.85751e-07
7.86099e-07
7.8707e-07
7.86502e-07
7.80243e-07
7.80243e-07
7.80243e-07
7.80243e-07
7.83187e-07
7.82941e-07
7.85009e-07
7.80243e-07
7.80243e-07
7.80243e-07
7.80243e-07
7.80243e-07
7.80243e-07
7.79969e-07
7.83985e-07
7.86243e-07
7.85328e-07
7.80243e-07
7.80243e-07
7.80243e-07
7.80243e-07
7.80243e-07
7.80243e-07
7.78809e-07
7.83867e-07
7.85822e-07
7.85337e-07
7.80243e-07
7.80243e-07
7.80243e-07
7.80243e-07
7.80243e-07
7.80243e-07
7.78891e-07
7.82433e-07
7.84659e-07
7.80243e-07
7.80243e-07
7.80243e-07
7.80243e-07
7.80243e-07
7.80243e-07
7.7912e-07
7.81986e-07
7.85751e-07
7.83185e-07
7.80243e-07
7.80243e-07
7.80243e-07
7.80243e-07
7.76937e-07
7.81048e-07
7.84396e-07
7.86099e-07
7.8294e-07
7.79969e-07
7.78805e-07
7.78887e-07
7.79116e-07
7.81046e-07
7.8215e-07
7.83983e-07
7.83866e-07
7.82432e-07
7.81984e-07
7.84395e-07
7.76412e-07
7.7599e-07
7.77238e-07
7.75179e-07
7.75496e-07
7.75505e-07
7.74828e-07
7.75918e-07
7.76266e-07
7.77238e-07
7.7667e-07
7.70411e-07
7.70411e-07
7.70411e-07
7.70411e-07
7.73355e-07
7.73108e-07
7.75178e-07
7.70411e-07
7.70411e-07
7.70411e-07
7.70411e-07
7.70412e-07
7.70411e-07
7.70137e-07
7.74153e-07
7.76411e-07
7.75496e-07
7.70411e-07
7.70411e-07
7.70411e-07
7.70411e-07
7.70411e-07
7.70411e-07
7.68977e-07
7.74035e-07
7.7599e-07
7.75505e-07
7.70411e-07
7.70411e-07
7.70411e-07
7.70411e-07
7.70411e-07
7.70411e-07
7.69059e-07
7.72601e-07
7.74827e-07
7.70411e-07
7.70411e-07
7.70411e-07
7.70411e-07
7.70412e-07
7.70411e-07
7.69288e-07
7.72154e-07
7.75919e-07
7.73353e-07
7.70411e-07
7.70411e-07
7.70411e-07
7.70411e-07
7.67105e-07
7.71216e-07
7.74564e-07
7.76267e-07
7.73108e-07
7.70136e-07
7.68972e-07
7.69054e-07
7.69283e-07
7.71214e-07
7.72318e-07
7.7415e-07
7.74033e-07
7.72598e-07
7.72151e-07
7.74562e-07
7.66581e-07
7.66158e-07
7.67407e-07
7.65347e-07
7.65665e-07
7.65673e-07
7.64996e-07
7.66087e-07
7.66435e-07
7.67407e-07
7.66839e-07
7.6058e-07
7.6058e-07
7.6058e-07
7.6058e-07
7.63523e-07
7.63277e-07
7.65346e-07
7.6058e-07
7.6058e-07
7.6058e-07
7.6058e-07
7.6058e-07
7.6058e-07
7.60305e-07
7.64321e-07
7.6658e-07
7.65664e-07
7.6058e-07
7.6058e-07
7.6058e-07
7.6058e-07
7.6058e-07
7.6058e-07
7.59145e-07
7.64204e-07
7.66158e-07
7.65673e-07
7.6058e-07
7.6058e-07
7.6058e-07
7.6058e-07
7.6058e-07
7.6058e-07
7.59227e-07
7.62769e-07
7.64996e-07
7.6058e-07
7.6058e-07
7.6058e-07
7.6058e-07
7.6058e-07
7.6058e-07
7.59456e-07
7.62322e-07
7.66087e-07
7.63522e-07
7.6058e-07
7.6058e-07
7.6058e-07
7.6058e-07
7.57274e-07
7.61384e-07
7.64732e-07
7.66435e-07
7.63277e-07
7.60305e-07
7.59142e-07
7.59224e-07
7.59452e-07
7.61382e-07
7.62486e-07
7.64319e-07
7.64202e-07
7.62768e-07
7.62319e-07
7.64731e-07
7.56749e-07
7.56326e-07
7.57575e-07
7.55515e-07
7.55833e-07
7.55841e-07
7.55164e-07
7.56255e-07
7.56603e-07
7.57575e-07
7.57007e-07
7.50748e-07
7.50748e-07
7.50748e-07
7.50748e-07
7.53691e-07
7.53445e-07
7.55514e-07
7.50748e-07
7.50748e-07
7.50748e-07
7.50748e-07
7.50748e-07
7.50748e-07
7.50474e-07
7.5449e-07
7.56748e-07
7.55833e-07
7.50748e-07
7.50748e-07
7.50748e-07
7.50748e-07
7.50748e-07
7.50748e-07
7.49313e-07
7.54372e-07
7.56326e-07
7.55842e-07
7.50748e-07
7.50748e-07
7.50748e-07
7.50748e-07
7.50748e-07
7.50748e-07
7.49396e-07
7.52937e-07
7.55164e-07
7.50748e-07
7.50748e-07
7.50748e-07
7.50748e-07
7.50748e-07
7.50748e-07
7.49625e-07
7.5249e-07
7.56255e-07
7.5369e-07
7.50748e-07
7.50748e-07
7.50748e-07
7.50748e-07
7.47442e-07
7.51552e-07
7.549e-07
7.56603e-07
7.53445e-07
7.50473e-07
7.49311e-07
7.49392e-07
7.4962e-07
7.5155e-07
7.52655e-07
7.54487e-07
7.5437e-07
7.52936e-07
7.52488e-07
7.54899e-07
7.46917e-07
7.46495e-07
7.47742e-07
7.45683e-07
7.46001e-07
7.46009e-07
7.45332e-07
7.46422e-07
7.46771e-07
7.47743e-07
7.47175e-07
7.40916e-07
7.40916e-07
7.40916e-07
7.40916e-07
7.4386e-07
7.43613e-07
7.45682e-07
7.40916e-07
7.40916e-07
7.40916e-07
7.40916e-07
7.40916e-07
7.40916e-07
7.40642e-07
7.44658e-07
7.46916e-07
7.46001e-07
7.40916e-07
7.40916e-07
7.40916e-07
7.40916e-07
7.40916e-07
7.40916e-07
7.39481e-07
7.4454e-07
7.46495e-07
7.4601e-07
7.40916e-07
7.40916e-07
7.40916e-07
7.40916e-07
7.40916e-07
7.40916e-07
7.39564e-07
7.43106e-07
7.45332e-07
7.40916e-07
7.40916e-07
7.40916e-07
7.40916e-07
7.40916e-07
7.40916e-07
7.39793e-07
7.42659e-07
7.46423e-07
7.43858e-07
7.40916e-07
7.40916e-07
7.40916e-07
7.40916e-07
7.3761e-07
7.41721e-07
7.45068e-07
7.46771e-07
7.43613e-07
7.40642e-07
7.39479e-07
7.3956e-07
7.39788e-07
7.41718e-07
7.42823e-07
7.44655e-07
7.44538e-07
7.43104e-07
7.42656e-07
7.45067e-07
7.37085e-07
7.36663e-07
7.3791e-07
7.35851e-07
7.36169e-07
7.36177e-07
7.355e-07
7.36591e-07
7.36939e-07
7.37911e-07
7.37343e-07
7.31084e-07
7.31084e-07
7.31084e-07
7.31084e-07
7.34028e-07
7.33781e-07
7.3585e-07
7.31084e-07
7.31084e-07
7.31084e-07
7.31084e-07
7.31084e-07
7.31084e-07
7.3081e-07
7.34826e-07
7.37084e-07
7.36169e-07
7.31084e-07
7.31084e-07
7.31084e-07
7.31084e-07
7.31084e-07
7.31084e-07
7.29649e-07
7.34708e-07
7.36663e-07
7.36178e-07
7.31084e-07
7.31084e-07
7.31084e-07
7.31084e-07
7.31084e-07
7.31084e-07
7.29732e-07
7.33274e-07
7.355e-07
7.31084e-07
7.31084e-07
7.31084e-07
7.31084e-07
7.31084e-07
7.31084e-07
7.29961e-07
7.32827e-07
7.36592e-07
7.34026e-07
7.31084e-07
7.31084e-07
7.31084e-07
7.31084e-07
7.27778e-07
7.31889e-07
7.35236e-07
7.36939e-07
7.33781e-07
7.3081e-07
7.29647e-07
7.29728e-07
7.29956e-07
7.31886e-07
7.32991e-07
7.34824e-07
7.34707e-07
7.33272e-07
7.32824e-07
7.35235e-07
7.27253e-07
7.26831e-07
7.28079e-07
7.26019e-07
7.26337e-07
7.26345e-07
7.25668e-07
7.26758e-07
7.27107e-07
7.28079e-07
7.27511e-07
7.21252e-07
7.21252e-07
7.21252e-07
7.21252e-07
7.24196e-07
7.23949e-07
7.26018e-07
7.21252e-07
7.21252e-07
7.21252e-07
7.21252e-07
7.21252e-07
7.21252e-07
7.20978e-07
7.24995e-07
7.27252e-07
7.26337e-07
7.21252e-07
7.21252e-07
7.21252e-07
7.21252e-07
7.21252e-07
7.21252e-07
7.19817e-07
7.24876e-07
7.26831e-07
7.26346e-07
7.21252e-07
7.21252e-07
7.21252e-07
7.21252e-07
7.21252e-07
7.21252e-07
7.199e-07
7.23442e-07
7.25668e-07
7.21252e-07
7.21252e-07
7.21252e-07
7.21252e-07
7.21252e-07
7.21252e-07
7.20129e-07
7.22995e-07
7.2676e-07
7.24194e-07
7.21252e-07
7.21252e-07
7.21252e-07
7.21252e-07
7.17946e-07
7.22057e-07
7.25404e-07
7.27107e-07
7.23949e-07
7.20978e-07
7.19815e-07
7.19896e-07
7.20124e-07
7.22054e-07
7.23159e-07
7.24992e-07
7.24875e-07
7.2344e-07
7.22992e-07
7.25403e-07
7.17421e-07
7.16998e-07
7.18246e-07
7.16187e-07
7.16505e-07
7.16513e-07
7.15835e-07
7.16926e-07
7.17275e-07
7.18247e-07
7.17679e-07
7.1142e-07
7.1142e-07
7.1142e-07
7.1142e-07
7.14363e-07
7.14117e-07
7.16186e-07
7.1142e-07
7.1142e-07
7.1142e-07
7.1142e-07
7.1142e-07
7.1142e-07
7.11146e-07
7.15162e-07
7.1742e-07
7.16505e-07
7.1142e-07
7.1142e-07
7.1142e-07
7.1142e-07
7.1142e-07
7.1142e-07
7.09985e-07
7.15044e-07
7.16998e-07
7.16514e-07
7.1142e-07
7.1142e-07
7.1142e-07
7.1142e-07
7.1142e-07
7.1142e-07
7.10067e-07
7.13609e-07
7.15836e-07
7.1142e-07
7.1142e-07
7.1142e-07
7.1142e-07
7.1142e-07
7.1142e-07
7.10297e-07
7.13162e-07
7.16927e-07
7.14362e-07
7.1142e-07
7.1142e-07
7.1142e-07
7.1142e-07
7.08114e-07
7.12224e-07
7.15572e-07
7.17275e-07
7.14117e-07
7.11146e-07
7.09983e-07
7.10063e-07
7.10292e-07
7.12222e-07
7.13327e-07
7.15159e-07
7.15042e-07
7.13608e-07
7.13159e-07
7.1557e-07
7.07589e-07
7.07166e-07
7.08414e-07
7.06355e-07
7.06673e-07
7.06681e-07
7.06003e-07
7.07094e-07
7.07443e-07
7.08415e-07
7.07847e-07
7.01588e-07
7.01588e-07
7.01588e-07
7.01588e-07
7.04532e-07
7.04285e-07
7.06354e-07
7.01588e-07
7.01588e-07
7.01588e-07
7.01588e-07
7.01588e-07
7.01588e-07
7.01313e-07
7.0533e-07
7.07588e-07
7.06672e-07
7.01588e-07
7.01588e-07
7.01588e-07
7.01588e-07
7.01588e-07
7.01588e-07
7.00153e-07
7.05212e-07
7.07166e-07
7.06682e-07
7.01588e-07
7.01588e-07
7.01588e-07
7.01588e-07
7.01588e-07
7.01588e-07
7.00235e-07
7.03777e-07
7.06004e-07
7.01588e-07
7.01588e-07
7.01588e-07
7.01588e-07
7.01588e-07
7.01588e-07
7.00464e-07
7.0333e-07
7.07095e-07
7.0453e-07
7.01588e-07
7.01588e-07
7.01588e-07
7.01588e-07
6.98282e-07
7.02392e-07
7.0574e-07
7.07443e-07
7.04285e-07
7.01313e-07
7.0015e-07
7.00231e-07
7.0046e-07
7.0239e-07
7.03494e-07
7.05327e-07
7.0521e-07
7.03776e-07
7.03327e-07
7.05738e-07
6.97756e-07
6.97334e-07
6.98583e-07
6.96522e-07
6.96841e-07
6.96849e-07
6.96171e-07
6.97262e-07
6.97611e-07
6.98583e-07
6.98015e-07
6.91756e-07
6.91756e-07
6.91756e-07
6.91756e-07
6.947e-07
6.94453e-07
6.96522e-07
6.91756e-07
6.91756e-07
6.91756e-07
6.91756e-07
6.91756e-07
6.91756e-07
6.91482e-07
6.95498e-07
6.97756e-07
6.96841e-07
6.91756e-07
6.91756e-07
6.91756e-07
6.91756e-07
6.91756e-07
6.91756e-07
6.90321e-07
6.9538e-07
6.97334e-07
6.9685e-07
6.91756e-07
6.91756e-07
6.91756e-07
6.91756e-07
6.91756e-07
6.91756e-07
6.90403e-07
6.93945e-07
6.96172e-07
6.91756e-07
6.91756e-07
6.91756e-07
6.91756e-07
6.91756e-07
6.91756e-07
6.90632e-07
6.93498e-07
6.97263e-07
6.94698e-07
6.91755e-07
6.91756e-07
6.91755e-07
6.91756e-07
6.88449e-07
6.9256e-07
6.95908e-07
6.97611e-07
6.94452e-07
6.91481e-07
6.90318e-07
6.90399e-07
6.90628e-07
6.92558e-07
6.93662e-07
6.95495e-07
6.95378e-07
6.93944e-07
6.93495e-07
6.95906e-07
6.87925e-07
6.87502e-07
6.88751e-07
6.8669e-07
6.87009e-07
6.87017e-07
6.86339e-07
6.87431e-07
6.8778e-07
6.88751e-07
6.88183e-07
6.81924e-07
6.81924e-07
6.81924e-07
6.81924e-07
6.84868e-07
6.84621e-07
6.8669e-07
6.81924e-07
6.81924e-07
6.81924e-07
6.81924e-07
6.81924e-07
6.81924e-07
6.8165e-07
6.85667e-07
6.87924e-07
6.87009e-07
6.81924e-07
6.81924e-07
6.81924e-07
6.81924e-07
6.81924e-07
6.81924e-07
6.80489e-07
6.85548e-07
6.87502e-07
6.87017e-07
6.81924e-07
6.81924e-07
6.81924e-07
6.81924e-07
6.81924e-07
6.81924e-07
6.80572e-07
6.84113e-07
6.8634e-07
6.81924e-07
6.81924e-07
6.81924e-07
6.81924e-07
6.81924e-07
6.81924e-07
6.80801e-07
6.83666e-07
6.87431e-07
6.84866e-07
6.81924e-07
6.81924e-07
6.81924e-07
6.81924e-07
6.78618e-07
6.82728e-07
6.86076e-07
6.87779e-07
6.84621e-07
6.81649e-07
6.80486e-07
6.80567e-07
6.80796e-07
6.82726e-07
6.83831e-07
6.85663e-07
6.85546e-07
6.84112e-07
6.83663e-07
6.86074e-07
6.78093e-07
6.77671e-07
6.7892e-07
6.76859e-07
6.77177e-07
6.77185e-07
6.76507e-07
6.77599e-07
6.77948e-07
6.7892e-07
6.78352e-07
6.72093e-07
6.72093e-07
6.72093e-07
6.72092e-07
6.75035e-07
6.74789e-07
6.76859e-07
6.72093e-07
6.72093e-07
6.72093e-07
6.72093e-07
6.72093e-07
6.72092e-07
6.71818e-07
6.75835e-07
6.78093e-07
6.77177e-07
6.72093e-07
6.72093e-07
6.72093e-07
6.72093e-07
6.72093e-07
6.72092e-07
6.70658e-07
6.75716e-07
6.77671e-07
6.77186e-07
6.72093e-07
6.72093e-07
6.72093e-07
6.72093e-07
6.72093e-07
6.72093e-07
6.7074e-07
6.74282e-07
6.76509e-07
6.72093e-07
6.72093e-07
6.72093e-07
6.72093e-07
6.72093e-07
6.72092e-07
6.70969e-07
6.73835e-07
6.776e-07
6.75035e-07
6.72093e-07
6.72093e-07
6.72093e-07
6.72093e-07
6.68786e-07
6.72897e-07
6.76245e-07
6.77948e-07
6.74789e-07
6.71817e-07
6.70655e-07
6.70735e-07
6.70965e-07
6.72895e-07
6.73999e-07
6.75832e-07
6.75715e-07
6.7428e-07
6.73832e-07
6.76243e-07
6.68262e-07
6.67839e-07
6.69088e-07
6.67028e-07
6.67346e-07
6.67354e-07
6.66676e-07
6.67767e-07
6.68116e-07
6.69089e-07
6.6852e-07
6.62261e-07
6.62261e-07
6.62261e-07
6.62261e-07
6.65204e-07
6.64958e-07
6.67027e-07
6.62261e-07
6.62261e-07
6.62261e-07
6.62261e-07
6.62261e-07
6.62261e-07
6.61987e-07
6.66004e-07
6.68261e-07
6.67346e-07
6.62261e-07
6.62261e-07
6.62261e-07
6.62261e-07
6.62261e-07
6.62261e-07
6.60826e-07
6.65885e-07
6.6784e-07
6.67354e-07
6.62261e-07
6.62261e-07
6.62261e-07
6.62261e-07
6.62261e-07
6.62261e-07
6.60909e-07
6.64451e-07
6.66677e-07
6.62261e-07
6.62261e-07
6.62261e-07
6.62261e-07
6.62261e-07
6.62261e-07
6.61138e-07
6.64004e-07
6.67768e-07
6.65203e-07
6.62261e-07
6.62261e-07
6.62261e-07
6.62261e-07
6.58955e-07
6.63066e-07
6.66413e-07
6.68116e-07
6.64958e-07
6.61986e-07
6.60824e-07
6.60904e-07
6.61133e-07
6.63063e-07
6.64168e-07
6.66e-07
6.65883e-07
6.6445e-07
6.64001e-07
6.66412e-07
6.58431e-07
6.58008e-07
6.59256e-07
6.57196e-07
6.57514e-07
6.57522e-07
6.56845e-07
6.57936e-07
6.58285e-07
6.59257e-07
6.58688e-07
6.5243e-07
6.52429e-07
6.5243e-07
6.52429e-07
6.55372e-07
6.55127e-07
6.57196e-07
6.5243e-07
6.52429e-07
6.52429e-07
6.52429e-07
6.52429e-07
6.52429e-07
6.52155e-07
6.56172e-07
6.5843e-07
6.57514e-07
6.52429e-07
6.5243e-07
6.52429e-07
6.52429e-07
6.52429e-07
6.52429e-07
6.50995e-07
6.56053e-07
6.58008e-07
6.57523e-07
6.52429e-07
6.52429e-07
6.52429e-07
6.52429e-07
6.52429e-07
6.52429e-07
6.51077e-07
6.54619e-07
6.56846e-07
6.52429e-07
6.5243e-07
6.52429e-07
6.52429e-07
6.5243e-07
6.52429e-07
6.51306e-07
6.54172e-07
6.57937e-07
6.55371e-07
6.52429e-07
6.52429e-07
6.52429e-07
6.52429e-07
6.49123e-07
6.53234e-07
6.56582e-07
6.58285e-07
6.55126e-07
6.52154e-07
6.50992e-07
6.51073e-07
6.51302e-07
6.53232e-07
6.54336e-07
6.56169e-07
6.56052e-07
6.54618e-07
6.54169e-07
6.5658e-07
6.48598e-07
6.48176e-07
6.49423e-07
6.47364e-07
6.47682e-07
6.4769e-07
6.47012e-07
6.48104e-07
6.48453e-07
6.49424e-07
6.48856e-07
6.42597e-07
6.42597e-07
6.42597e-07
6.42597e-07
6.4554e-07
6.45295e-07
6.47364e-07
6.42597e-07
6.42597e-07
6.42597e-07
6.42597e-07
6.42598e-07
6.42597e-07
6.42323e-07
6.4634e-07
6.48598e-07
6.47682e-07
6.42597e-07
6.42597e-07
6.42597e-07
6.42597e-07
6.42597e-07
6.42597e-07
6.41163e-07
6.46221e-07
6.48176e-07
6.47691e-07
6.42597e-07
6.42597e-07
6.42597e-07
6.42597e-07
6.42597e-07
6.42597e-07
6.41245e-07
6.44787e-07
6.47013e-07
6.42597e-07
6.42597e-07
6.42597e-07
6.42597e-07
6.42597e-07
6.42597e-07
6.41474e-07
6.4434e-07
6.48105e-07
6.45539e-07
6.42597e-07
6.42597e-07
6.42597e-07
6.42597e-07
6.39291e-07
6.43402e-07
6.4675e-07
6.48453e-07
6.45294e-07