/*--------------------------------*- C++ -*----------------------------------*\
| =========                 |                                                 |
| \\      /  F ield         | OpenFOAM: The Open Source CFD Toolbox           |
|  \\    /   O peration     | Version:  v2012                                 |
|   \\  /    A nd           | Website:  www.openfoam.com                      |
|    \\/     M anipulation  |                                                 |
\*---------------------------------------------------------------------------*/
FoamFile
{
    version     2.0;
    format      ascii;
    class       volScalarField;
    location    "0.47";
    object      p;
}
// * * * * * * * * * * * * * * * * * * * * * * * * * * * * * * * * * * * * * //

dimensions      [0 2 -2 0 0 0 0];


internalField   nonuniform List<scalar> 
189320
(
9.88842e-07
9.87842e-07
9.82853e-07
9.82778e-07
9.82068e-07
9.81453e-07
9.82763e-07
9.84201e-07
9.8037e-07
9.82841e-07
9.80775e-07
9.81926e-07
9.81411e-07
9.81332e-07
9.81602e-07
9.81561e-07
9.81669e-07
9.82769e-07
9.81912e-07
9.81196e-07
9.80889e-07
9.80831e-07
9.81047e-07
9.81448e-07
9.80941e-07
9.84867e-07
9.88722e-07
9.82005e-07
9.81403e-07
9.80887e-07
9.80604e-07
9.8055e-07
9.80729e-07
9.81141e-07
9.8162e-07
9.8325e-07
9.87782e-07
9.81438e-07
9.81325e-07
9.80829e-07
9.8055e-07
9.80494e-07
9.80665e-07
9.81061e-07
9.81748e-07
9.81405e-07
9.82755e-07
9.81598e-07
9.81047e-07
9.80731e-07
9.80667e-07
9.80873e-07
9.8129e-07
9.81446e-07
9.91463e-07
9.84193e-07
9.81561e-07
9.81452e-07
9.81148e-07
9.81067e-07
9.81292e-07
9.81671e-07
9.80798e-07
9.84101e-07
9.80367e-07
9.81674e-07
9.80958e-07
9.81635e-07
9.81765e-07
9.81455e-07
9.8081e-07
9.80249e-07
9.84874e-07
9.83278e-07
9.81429e-07
9.91478e-07
9.84111e-07
9.70556e-07
9.70309e-07
9.71393e-07
9.68763e-07
9.68943e-07
9.68643e-07
9.68657e-07
9.70153e-07
9.70662e-07
9.71397e-07
9.69402e-07
9.63794e-07
9.63866e-07
9.63867e-07
9.63792e-07
9.66639e-07
9.6721e-07
9.68761e-07
9.63789e-07
9.63571e-07
9.64041e-07
9.64035e-07
9.63576e-07
9.638e-07
9.65208e-07
9.68371e-07
9.70548e-07
9.68943e-07
9.63861e-07
9.64031e-07
9.64238e-07
9.64236e-07
9.6404e-07
9.63867e-07
9.64876e-07
9.68101e-07
9.70303e-07
9.68641e-07
9.63864e-07
9.64033e-07
9.64236e-07
9.64236e-07
9.64044e-07
9.63871e-07
9.64941e-07
9.67102e-07
9.68656e-07
9.63789e-07
9.63573e-07
9.64038e-07
9.64032e-07
9.63578e-07
9.63799e-07
9.64918e-07
9.66395e-07
9.70153e-07
9.66642e-07
9.63799e-07
9.63867e-07
9.63867e-07
9.63795e-07
9.63113e-07
9.66068e-07
9.69286e-07
9.70661e-07
9.6721e-07
9.65209e-07
9.64875e-07
9.6494e-07
9.64916e-07
9.66059e-07
9.67121e-07
9.68372e-07
9.68106e-07
9.67103e-07
9.66395e-07
9.69284e-07
9.60481e-07
9.60076e-07
9.6124e-07
9.58962e-07
9.59196e-07
9.59157e-07
9.58678e-07
9.59974e-07
9.60348e-07
9.61242e-07
9.60225e-07
9.54096e-07
9.54071e-07
9.54069e-07
9.54098e-07
9.57363e-07
9.57178e-07
9.5896e-07
9.54094e-07
9.53808e-07
9.53938e-07
9.53928e-07
9.53817e-07
9.54099e-07
9.54388e-07
9.58322e-07
9.60475e-07
9.59193e-07
9.54067e-07
9.53927e-07
9.54018e-07
9.54012e-07
9.53936e-07
9.54071e-07
9.53628e-07
9.58283e-07
9.60071e-07
9.59154e-07
9.54068e-07
9.53927e-07
9.54014e-07
9.54013e-07
9.53937e-07
9.54072e-07
9.53783e-07
9.56765e-07
9.58672e-07
9.54095e-07
9.53811e-07
9.53936e-07
9.53927e-07
9.53816e-07
9.54099e-07
9.53811e-07
9.56469e-07
9.59971e-07
9.57362e-07
9.54098e-07
9.5407e-07
9.5407e-07
9.54099e-07
9.51794e-07
9.55521e-07
9.58763e-07
9.60346e-07
9.57178e-07
9.54388e-07
9.5363e-07
9.53783e-07
9.53812e-07
9.55519e-07
9.56593e-07
9.58315e-07
9.58281e-07
9.56765e-07
9.56473e-07
9.58763e-07
9.50176e-07
9.49762e-07
9.50959e-07
9.48775e-07
9.4905e-07
9.49054e-07
9.48477e-07
9.49687e-07
9.50047e-07
9.5096e-07
9.5015e-07
9.44008e-07
9.43998e-07
9.43997e-07
9.44008e-07
9.4709e-07
9.46881e-07
9.48773e-07
9.44007e-07
9.43907e-07
9.43925e-07
9.43922e-07
9.4391e-07
9.44009e-07
9.44056e-07
9.48018e-07
9.50176e-07
9.4905e-07
9.43999e-07
9.43923e-07
9.4393e-07
9.43929e-07
9.43924e-07
9.43998e-07
9.43023e-07
9.47918e-07
9.49761e-07
9.49054e-07
9.43998e-07
9.43921e-07
9.43929e-07
9.43929e-07
9.43925e-07
9.43999e-07
9.43093e-07
9.46398e-07
9.48477e-07
9.44008e-07
9.43907e-07
9.43925e-07
9.43922e-07
9.4391e-07
9.44009e-07
9.43255e-07
9.4611e-07
9.49683e-07
9.4709e-07
9.44009e-07
9.43999e-07
9.43999e-07
9.44009e-07
9.41194e-07
9.45074e-07
9.48417e-07
9.50044e-07
9.46879e-07
9.44058e-07
9.43023e-07
9.43091e-07
9.43252e-07
9.45071e-07
9.46263e-07
9.4802e-07
9.47915e-07
9.464e-07
9.4611e-07
9.4842e-07
9.39996e-07
9.39577e-07
9.40784e-07
9.3863e-07
9.38927e-07
9.38933e-07
9.38318e-07
9.3951e-07
9.39864e-07
9.40782e-07
9.40031e-07
9.33872e-07
9.33873e-07
9.33873e-07
9.33873e-07
9.36914e-07
9.36696e-07
9.38629e-07
9.33872e-07
9.33832e-07
9.33849e-07
9.33847e-07
9.33834e-07
9.33873e-07
9.3385e-07
9.3784e-07
9.39995e-07
9.38926e-07
9.33872e-07
9.33848e-07
9.33853e-07
9.33852e-07
9.3385e-07
9.33873e-07
9.32765e-07
9.37722e-07
9.39578e-07
9.38931e-07
9.33872e-07
9.33848e-07
9.33852e-07
9.33851e-07
9.3385e-07
9.33874e-07
9.32842e-07
9.36208e-07
9.38315e-07
9.33872e-07
9.33832e-07
9.33849e-07
9.33846e-07
9.33834e-07
9.33874e-07
9.33041e-07
9.35913e-07
9.3951e-07
9.36914e-07
9.33873e-07
9.33873e-07
9.33873e-07
9.33874e-07
9.30965e-07
9.34888e-07
9.38229e-07
9.39864e-07
9.36696e-07
9.3385e-07
9.32764e-07
9.32838e-07
9.33039e-07
9.34885e-07
9.36081e-07
9.37838e-07
9.3772e-07
9.36206e-07
9.35913e-07
9.38229e-07
9.29858e-07
9.29439e-07
9.30645e-07
9.28502e-07
9.28804e-07
9.28808e-07
9.28178e-07
9.29372e-07
9.29724e-07
9.30645e-07
9.29911e-07
9.23743e-07
9.23743e-07
9.23744e-07
9.23741e-07
9.26773e-07
9.26554e-07
9.28501e-07
9.23742e-07
9.23729e-07
9.23734e-07
9.23735e-07
9.23728e-07
9.23741e-07
9.23706e-07
9.27704e-07
9.29857e-07
9.28805e-07
9.23744e-07
9.23735e-07
9.2374e-07
9.23741e-07
9.23735e-07
9.23744e-07
9.22605e-07
9.27577e-07
9.29438e-07
9.28809e-07
9.23745e-07
9.23736e-07
9.2374e-07
9.2374e-07
9.23735e-07
9.23744e-07
9.22682e-07
9.26065e-07
9.2818e-07
9.23741e-07
9.23729e-07
9.23734e-07
9.23735e-07
9.2373e-07
9.23741e-07
9.22895e-07
9.25769e-07
9.2937e-07
9.26773e-07
9.23742e-07
9.23744e-07
9.23743e-07
9.23742e-07
9.20812e-07
9.24745e-07
9.28087e-07
9.29723e-07
9.26555e-07
9.23706e-07
9.22603e-07
9.22678e-07
9.22891e-07
9.24741e-07
9.25937e-07
9.277e-07
9.27575e-07
9.26063e-07
9.25768e-07
9.28083e-07
9.1973e-07
9.19311e-07
9.20519e-07
9.1838e-07
9.18685e-07
9.18685e-07
9.18051e-07
9.19244e-07
9.19597e-07
9.20519e-07
9.19789e-07
9.13614e-07
9.13618e-07
9.13618e-07
9.13615e-07
9.16645e-07
9.16427e-07
9.18379e-07
9.13616e-07
9.13611e-07
9.13615e-07
9.13615e-07
9.13611e-07
9.13616e-07
9.13575e-07
9.17574e-07
9.19729e-07
9.18686e-07
9.13618e-07
9.13613e-07
9.13617e-07
9.13618e-07
9.13612e-07
9.13616e-07
9.12468e-07
9.17447e-07
9.1931e-07
9.18683e-07
9.13617e-07
9.13613e-07
9.13616e-07
9.13618e-07
9.13612e-07
9.13616e-07
9.1255e-07
9.15935e-07
9.18052e-07
9.13616e-07
9.13612e-07
9.13615e-07
9.13615e-07
9.13612e-07
9.13615e-07
9.12768e-07
9.1564e-07
9.19243e-07
9.16645e-07
9.13615e-07
9.13617e-07
9.13617e-07
9.13615e-07
9.10684e-07
9.1462e-07
9.17958e-07
9.19597e-07
9.16427e-07
9.13576e-07
9.1247e-07
9.1255e-07
9.12767e-07
9.14617e-07
9.15809e-07
9.1757e-07
9.17448e-07
9.15936e-07
9.15638e-07
9.17956e-07
9.09607e-07
9.09187e-07
9.10396e-07
9.08258e-07
9.08564e-07
9.08561e-07
9.07927e-07
9.0912e-07
9.09473e-07
9.10396e-07
9.09667e-07
9.03492e-07
9.03491e-07
9.03492e-07
9.03492e-07
9.06521e-07
9.06304e-07
9.08257e-07
9.03491e-07
9.03491e-07
9.03491e-07
9.03491e-07
9.03492e-07
9.03492e-07
9.03453e-07
9.07451e-07
9.09605e-07
9.08564e-07
9.03492e-07
9.03492e-07
9.03492e-07
9.03492e-07
9.03492e-07
9.03492e-07
9.02346e-07
9.07325e-07
9.09186e-07
9.0856e-07
9.03492e-07
9.03491e-07
9.03492e-07
9.03492e-07
9.03492e-07
9.03492e-07
9.02426e-07
9.05812e-07
9.07927e-07
9.03492e-07
9.03491e-07
9.03492e-07
9.03492e-07
9.03491e-07
9.03492e-07
9.02646e-07
9.05515e-07
9.09119e-07
9.06521e-07
9.03492e-07
9.03492e-07
9.03492e-07
9.03492e-07
9.00562e-07
9.04496e-07
9.07833e-07
9.09473e-07
9.06303e-07
9.03452e-07
9.02343e-07
9.02423e-07
9.02643e-07
9.04493e-07
9.05686e-07
9.07448e-07
9.07323e-07
9.05811e-07
9.05514e-07
9.07832e-07
8.99485e-07
8.99065e-07
9.00272e-07
8.98136e-07
8.98442e-07
8.9844e-07
8.97804e-07
8.98998e-07
8.99351e-07
9.00273e-07
8.99546e-07
8.93369e-07
8.93369e-07
8.93369e-07
8.9337e-07
8.96398e-07
8.96181e-07
8.98135e-07
8.9337e-07
8.93369e-07
8.93369e-07
8.93369e-07
8.93369e-07
8.93368e-07
8.93331e-07
8.97328e-07
8.99483e-07
8.98442e-07
8.93369e-07
8.93368e-07
8.93369e-07
8.93369e-07
8.9337e-07
8.93369e-07
8.92221e-07
8.97203e-07
8.99064e-07
8.98439e-07
8.9337e-07
8.9337e-07
8.93371e-07
8.9337e-07
8.9337e-07
8.93368e-07
8.92303e-07
8.95689e-07
8.97805e-07
8.93368e-07
8.93367e-07
8.93367e-07
8.93368e-07
8.93368e-07
8.93369e-07
8.92524e-07
8.95393e-07
8.98997e-07
8.96397e-07
8.9337e-07
8.9337e-07
8.93369e-07
8.9337e-07
8.9044e-07
8.94373e-07
8.9771e-07
8.9935e-07
8.96181e-07
8.9333e-07
8.92219e-07
8.923e-07
8.9252e-07
8.94371e-07
8.95563e-07
8.97326e-07
8.97201e-07
8.95689e-07
8.95392e-07
8.9771e-07
8.89362e-07
8.88942e-07
8.90151e-07
8.88014e-07
8.88321e-07
8.88317e-07
8.87681e-07
8.88875e-07
8.89229e-07
8.90151e-07
8.89424e-07
8.83247e-07
8.83247e-07
8.83247e-07
8.83247e-07
8.86275e-07
8.86059e-07
8.88013e-07
8.83246e-07
8.83246e-07
8.83246e-07
8.83247e-07
8.83246e-07
8.83246e-07
8.83208e-07
8.87206e-07
8.89361e-07
8.88321e-07
8.83247e-07
8.83248e-07
8.83247e-07
8.83248e-07
8.83247e-07
8.83247e-07
8.82099e-07
8.8708e-07
8.88942e-07
8.88317e-07
8.83247e-07
8.83246e-07
8.83246e-07
8.83247e-07
8.83245e-07
8.83247e-07
8.82181e-07
8.85567e-07
8.87682e-07
8.83247e-07
8.83246e-07
8.83247e-07
8.83247e-07
8.83246e-07
8.83247e-07
8.82402e-07
8.85271e-07
8.88875e-07
8.86274e-07
8.83247e-07
8.83247e-07
8.83247e-07
8.83246e-07
8.80319e-07
8.84251e-07
8.87588e-07
8.89228e-07
8.86058e-07
8.83207e-07
8.82096e-07
8.82178e-07
8.82398e-07
8.84249e-07
8.85441e-07
8.87204e-07
8.87079e-07
8.85567e-07
8.8527e-07
8.87587e-07
8.7924e-07
8.7882e-07
8.8003e-07
8.77892e-07
8.78199e-07
8.78195e-07
8.77559e-07
8.78755e-07
8.79107e-07
8.80029e-07
8.79302e-07
8.73124e-07
8.73124e-07
8.73124e-07
8.73124e-07
8.76153e-07
8.75937e-07
8.77892e-07
8.73124e-07
8.73125e-07
8.73125e-07
8.73125e-07
8.73125e-07
8.73124e-07
8.73087e-07
8.77085e-07
8.79239e-07
8.78199e-07
8.73124e-07
8.73125e-07
8.73125e-07
8.73125e-07
8.73125e-07
8.73125e-07
8.71978e-07
8.76959e-07
8.7882e-07
8.78195e-07
8.73124e-07
8.73125e-07
8.73125e-07
8.73125e-07
8.73125e-07
8.73125e-07
8.7206e-07
8.75446e-07
8.7756e-07
8.73124e-07
8.73125e-07
8.73125e-07
8.73125e-07
8.73125e-07
8.73124e-07
8.72281e-07
8.7515e-07
8.78753e-07
8.76152e-07
8.73124e-07
8.73125e-07
8.73125e-07
8.73124e-07
8.70197e-07
8.7413e-07
8.77466e-07
8.79106e-07
8.75936e-07
8.73086e-07
8.71974e-07
8.72056e-07
8.72277e-07
8.74127e-07
8.75319e-07
8.77083e-07
8.76957e-07
8.75445e-07
8.75148e-07
8.77465e-07
8.69118e-07
8.68698e-07
8.69906e-07
8.6777e-07
8.68077e-07
8.68073e-07
8.67438e-07
8.68631e-07
8.68984e-07
8.69907e-07
8.6918e-07
8.63002e-07
8.63002e-07
8.63002e-07
8.63002e-07
8.66031e-07
8.65814e-07
8.6777e-07
8.63002e-07
8.63002e-07
8.63002e-07
8.63002e-07
8.63002e-07
8.63002e-07
8.62964e-07
8.66963e-07
8.69117e-07
8.68077e-07
8.63002e-07
8.63002e-07
8.63002e-07
8.63002e-07
8.63002e-07
8.63002e-07
8.61856e-07
8.66837e-07
8.68698e-07
8.68074e-07
8.63002e-07
8.63002e-07
8.63002e-07
8.63002e-07
8.63002e-07
8.63002e-07
8.61938e-07
8.65324e-07
8.67438e-07
8.63002e-07
8.63002e-07
8.63003e-07
8.63003e-07
8.63002e-07
8.63002e-07
8.62158e-07
8.65027e-07
8.68631e-07
8.6603e-07
8.63002e-07
8.63002e-07
8.63002e-07
8.63002e-07
8.60075e-07
8.64008e-07
8.67344e-07
8.68984e-07
8.65814e-07
8.62964e-07
8.61853e-07
8.61934e-07
8.62155e-07
8.64005e-07
8.65197e-07
8.66961e-07
8.66835e-07
8.65323e-07
8.65026e-07
8.67343e-07
8.58996e-07
8.58576e-07
8.59786e-07
8.57648e-07
8.57955e-07
8.5795e-07
8.57317e-07
8.58507e-07
8.58862e-07
8.59785e-07
8.59058e-07
8.5288e-07
8.5288e-07
8.5288e-07
8.5288e-07
8.55909e-07
8.55692e-07
8.57647e-07
8.5288e-07
8.5288e-07
8.5288e-07
8.5288e-07
8.5288e-07
8.5288e-07
8.52842e-07
8.5684e-07
8.58995e-07
8.57955e-07
8.5288e-07
8.5288e-07
8.5288e-07
8.5288e-07
8.5288e-07
8.5288e-07
8.51733e-07
8.56714e-07
8.58575e-07
8.57951e-07
8.5288e-07
8.5288e-07
8.5288e-07
8.5288e-07
8.5288e-07
8.5288e-07
8.51816e-07
8.55201e-07
8.57316e-07
8.5288e-07
8.5288e-07
8.5288e-07
8.5288e-07
8.5288e-07
8.5288e-07
8.52036e-07
8.54905e-07
8.58509e-07
8.55907e-07
8.5288e-07
8.5288e-07
8.5288e-07
8.5288e-07
8.49952e-07
8.53885e-07
8.57221e-07
8.58862e-07
8.55692e-07
8.52841e-07
8.5173e-07
8.51811e-07
8.52032e-07
8.53883e-07
8.55075e-07
8.56838e-07
8.56712e-07
8.552e-07
8.54903e-07
8.57221e-07
8.48873e-07
8.48453e-07
8.49662e-07
8.47525e-07
8.47832e-07
8.47828e-07
8.47194e-07
8.48385e-07
8.48739e-07
8.49662e-07
8.48935e-07
8.42757e-07
8.42757e-07
8.42757e-07
8.42758e-07
8.45786e-07
8.45569e-07
8.47525e-07
8.42757e-07
8.42757e-07
8.42757e-07
8.42757e-07
8.42757e-07
8.42757e-07
8.4272e-07
8.46718e-07
8.48872e-07
8.47832e-07
8.42757e-07
8.42757e-07
8.42757e-07
8.42757e-07
8.42757e-07
8.42757e-07
8.41611e-07
8.46592e-07
8.48453e-07
8.47829e-07
8.42757e-07
8.42757e-07
8.42757e-07
8.42757e-07
8.42757e-07
8.42757e-07
8.41693e-07
8.45079e-07
8.47193e-07
8.42757e-07
8.42757e-07
8.42757e-07
8.42757e-07
8.42757e-07
8.42757e-07
8.41913e-07
8.44782e-07
8.48386e-07
8.45785e-07
8.42757e-07
8.42757e-07
8.42757e-07
8.42757e-07
8.3983e-07
8.43763e-07
8.47098e-07
8.48739e-07
8.45569e-07
8.42719e-07
8.41607e-07
8.41688e-07
8.4191e-07
8.4376e-07
8.44952e-07
8.46715e-07
8.4659e-07
8.45078e-07
8.44781e-07
8.47098e-07
8.38751e-07
8.38331e-07
8.3954e-07
8.37403e-07
8.3771e-07
8.37706e-07
8.37072e-07
8.38264e-07
8.38618e-07
8.3954e-07
8.38813e-07
8.32635e-07
8.32635e-07
8.32635e-07
8.32635e-07
8.35664e-07
8.35447e-07
8.37403e-07
8.32635e-07
8.32635e-07
8.32635e-07
8.32635e-07
8.32635e-07
8.32635e-07
8.32598e-07
8.36596e-07
8.3875e-07
8.3771e-07
8.32635e-07
8.32635e-07
8.32635e-07
8.32635e-07
8.32635e-07
8.32635e-07
8.31489e-07
8.3647e-07
8.38331e-07
8.37706e-07
8.32635e-07
8.32635e-07
8.32635e-07
8.32635e-07
8.32635e-07
8.32635e-07
8.31571e-07
8.34957e-07
8.37071e-07
8.32635e-07
8.32635e-07
8.32635e-07
8.32635e-07
8.32635e-07
8.32635e-07
8.31791e-07
8.3466e-07
8.38264e-07
8.35663e-07
8.32635e-07
8.32635e-07
8.32635e-07
8.32635e-07
8.29708e-07
8.33641e-07
8.36976e-07
8.38617e-07
8.35447e-07
8.32597e-07
8.31485e-07
8.31566e-07
8.31787e-07
8.33638e-07
8.3483e-07
8.36593e-07
8.36468e-07
8.34955e-07
8.34659e-07
8.36976e-07
8.28629e-07
8.28209e-07
8.29418e-07
8.27281e-07
8.27589e-07
8.27584e-07
8.2695e-07
8.28141e-07
8.28495e-07
8.29419e-07
8.28691e-07
8.22514e-07
8.22514e-07
8.22514e-07
8.22514e-07
8.25542e-07
8.25326e-07
8.27281e-07
8.22514e-07
8.22514e-07
8.22514e-07
8.22514e-07
8.22514e-07
8.22514e-07
8.22476e-07
8.26474e-07
8.28628e-07
8.27588e-07
8.22514e-07
8.22514e-07
8.22514e-07
8.22514e-07
8.22514e-07
8.22514e-07
8.21367e-07
8.26348e-07
8.28209e-07
8.27585e-07
8.22514e-07
8.22514e-07
8.22514e-07
8.22514e-07
8.22514e-07
8.22514e-07
8.2145e-07
8.24835e-07
8.26949e-07
8.22514e-07
8.22514e-07
8.22514e-07
8.22514e-07
8.22514e-07
8.22514e-07
8.2167e-07
8.24539e-07
8.28142e-07
8.25541e-07
8.22514e-07
8.22514e-07
8.22514e-07
8.22514e-07
8.19586e-07
8.23519e-07
8.26855e-07
8.28495e-07
8.25325e-07
8.22475e-07
8.21363e-07
8.21444e-07
8.21666e-07
8.23517e-07
8.24708e-07
8.26471e-07
8.26346e-07
8.24834e-07
8.24537e-07
8.26854e-07
8.18507e-07
8.18087e-07
8.19296e-07
8.1716e-07
8.17467e-07
8.17462e-07
8.16828e-07
8.1802e-07
8.18373e-07
8.19297e-07
8.18569e-07
8.12392e-07
8.12392e-07
8.12392e-07
8.12392e-07
8.1542e-07
8.15204e-07
8.17159e-07
8.12392e-07
8.12392e-07
8.12392e-07
8.12392e-07
8.12392e-07
8.12392e-07
8.12354e-07
8.16352e-07
8.18507e-07
8.17467e-07
8.12392e-07
8.12392e-07
8.12392e-07
8.12392e-07
8.12392e-07
8.12392e-07
8.11246e-07
8.16227e-07
8.18087e-07
8.17463e-07
8.12392e-07
8.12392e-07
8.12392e-07
8.12392e-07
8.12392e-07
8.12392e-07
8.11328e-07
8.14713e-07
8.16828e-07
8.12392e-07
8.12392e-07
8.12392e-07
8.12392e-07
8.12392e-07
8.12392e-07
8.11548e-07
8.14417e-07
8.1802e-07
8.15419e-07
8.12392e-07
8.12392e-07
8.12392e-07
8.12392e-07
8.09464e-07
8.13397e-07
8.16733e-07
8.18374e-07
8.15203e-07
8.12353e-07
8.11242e-07
8.11323e-07
8.11544e-07
8.13395e-07
8.14587e-07
8.1635e-07
8.16225e-07
8.14712e-07
8.14415e-07
8.16733e-07
8.08385e-07
8.07965e-07
8.09173e-07
8.07037e-07
8.07344e-07
8.07339e-07
8.06705e-07
8.07898e-07
8.08251e-07
8.09174e-07
8.08447e-07
8.02269e-07
8.02269e-07
8.02269e-07
8.02269e-07
8.05298e-07
8.05081e-07
8.07036e-07
8.02269e-07
8.02269e-07
8.02269e-07
8.02269e-07
8.02269e-07
8.02269e-07
8.02231e-07
8.06229e-07
8.08384e-07
8.07344e-07
8.02269e-07
8.02269e-07
8.02269e-07
8.02269e-07
8.02269e-07
8.02269e-07
8.01123e-07
8.06104e-07
8.07965e-07
8.0734e-07
8.02269e-07
8.02269e-07
8.02269e-07
8.02269e-07
8.02269e-07
8.02269e-07
8.01205e-07
8.04591e-07
8.06705e-07
8.02269e-07
8.02269e-07
8.02269e-07
8.02269e-07
8.02269e-07
8.02269e-07
8.01425e-07
8.04294e-07
8.07898e-07
8.05296e-07
8.02269e-07
8.02269e-07
8.02269e-07
8.02269e-07
7.99342e-07
8.03274e-07
8.0661e-07
8.08251e-07
8.05081e-07
8.02231e-07
8.01119e-07
8.01201e-07
8.01422e-07
8.03272e-07
8.04464e-07
8.06227e-07
8.06102e-07
8.0459e-07
8.04293e-07
8.0661e-07
7.98262e-07
7.97842e-07
7.99051e-07
7.96914e-07
7.97221e-07
7.97217e-07
7.96582e-07
7.97774e-07
7.98128e-07
7.99051e-07
7.98324e-07
7.92146e-07
7.92146e-07
7.92146e-07
7.92146e-07
7.95175e-07
7.94958e-07
7.96914e-07
7.92146e-07
7.92146e-07
7.92146e-07
7.92146e-07
7.92146e-07
7.92146e-07
7.92108e-07
7.96106e-07
7.98261e-07
7.97221e-07
7.92146e-07
7.92146e-07
7.92146e-07
7.92146e-07
7.92146e-07
7.92146e-07
7.91e-07
7.95981e-07
7.97842e-07
7.97217e-07
7.92146e-07
7.92146e-07
7.92146e-07
7.92146e-07
7.92146e-07
7.92146e-07
7.91082e-07
7.94468e-07
7.96582e-07
7.92146e-07
7.92146e-07
7.92146e-07
7.92146e-07
7.92146e-07
7.92146e-07
7.91302e-07
7.94171e-07
7.97775e-07
7.95174e-07
7.92146e-07
7.92146e-07
7.92146e-07
7.92146e-07
7.89219e-07
7.93151e-07
7.96487e-07
7.98128e-07
7.94958e-07
7.92107e-07
7.90996e-07
7.91077e-07
7.91298e-07
7.93149e-07
7.94341e-07
7.96104e-07
7.95978e-07
7.94466e-07
7.94169e-07
7.96487e-07
7.88139e-07
7.8772e-07
7.88929e-07
7.86792e-07
7.87099e-07
7.87094e-07
7.8646e-07
7.87653e-07
7.88006e-07
7.88929e-07
7.88202e-07
7.82024e-07
7.82024e-07
7.82024e-07
7.82024e-07
7.85053e-07
7.84836e-07
7.86791e-07
7.82024e-07
7.82024e-07
7.82024e-07
7.82024e-07
7.82024e-07
7.82024e-07
7.81986e-07
7.85984e-07
7.88139e-07
7.87099e-07
7.82024e-07
7.82024e-07
7.82024e-07
7.82024e-07
7.82024e-07
7.82024e-07
7.80878e-07
7.85859e-07
7.8772e-07
7.87095e-07
7.82024e-07
7.82024e-07
7.82024e-07
7.82024e-07
7.82024e-07
7.82024e-07
7.8096e-07
7.84346e-07
7.8646e-07
7.82024e-07
7.82024e-07
7.82024e-07
7.82024e-07
7.82024e-07
7.82024e-07
7.8118e-07
7.84049e-07
7.87653e-07
7.85052e-07
7.82024e-07
7.82024e-07
7.82024e-07
7.82024e-07
7.79097e-07
7.83029e-07
7.86365e-07
7.88006e-07
7.84836e-07
7.81986e-07
7.80875e-07
7.80957e-07
7.81177e-07
7.83027e-07
7.84219e-07
7.85982e-07
7.85857e-07
7.84345e-07
7.84047e-07
7.86365e-07
7.78018e-07
7.77598e-07
7.78807e-07
7.7667e-07
7.76977e-07
7.76973e-07
7.76338e-07
7.77531e-07
7.77884e-07
7.78807e-07
7.7808e-07
7.71902e-07
7.71902e-07
7.71902e-07
7.71902e-07
7.74931e-07
7.74715e-07
7.7667e-07
7.71902e-07
7.71903e-07
7.71903e-07
7.71903e-07
7.71903e-07
7.71902e-07
7.71864e-07
7.75862e-07
7.78017e-07
7.76977e-07
7.71902e-07
7.71903e-07
7.71902e-07
7.71902e-07
7.71903e-07
7.71902e-07
7.70756e-07
7.75737e-07
7.77598e-07
7.76974e-07
7.71902e-07
7.71903e-07
7.71903e-07
7.71902e-07
7.71903e-07
7.71902e-07
7.70838e-07
7.74224e-07
7.76338e-07
7.71902e-07
7.71903e-07
7.71903e-07
7.71903e-07
7.71903e-07
7.71902e-07
7.71059e-07
7.73927e-07
7.77531e-07
7.7493e-07
7.71902e-07
7.71903e-07
7.71903e-07
7.71902e-07
7.68975e-07
7.72908e-07
7.76243e-07
7.77884e-07
7.74714e-07
7.71864e-07
7.70754e-07
7.70835e-07
7.71055e-07
7.72905e-07
7.74097e-07
7.75861e-07
7.75735e-07
7.74223e-07
7.73925e-07
7.76243e-07
7.67896e-07
7.67476e-07
7.68685e-07
7.66548e-07
7.66855e-07
7.66851e-07
7.66216e-07
7.67408e-07
7.67762e-07
7.68686e-07
7.67959e-07
7.61781e-07
7.6178e-07
7.6178e-07
7.6178e-07
7.64809e-07
7.64593e-07
7.66548e-07
7.61781e-07
7.61781e-07
7.6178e-07
7.6178e-07
7.61781e-07
7.6178e-07
7.61742e-07
7.65741e-07
7.67896e-07
7.66856e-07
7.61781e-07
7.61781e-07
7.61781e-07
7.6178e-07
7.61781e-07
7.6178e-07
7.60634e-07
7.65615e-07
7.67476e-07
7.66852e-07
7.61781e-07
7.61781e-07
7.61781e-07
7.6178e-07
7.61781e-07
7.6178e-07
7.60717e-07
7.64102e-07
7.66217e-07
7.61781e-07
7.61781e-07
7.61781e-07
7.61781e-07
7.61781e-07
7.6178e-07
7.60937e-07
7.63806e-07
7.67409e-07
7.64808e-07
7.61781e-07
7.61781e-07
7.61781e-07
7.6178e-07
7.58853e-07
7.62786e-07
7.66122e-07
7.67762e-07
7.64592e-07
7.61742e-07
7.60632e-07
7.60713e-07
7.60933e-07
7.62784e-07
7.63976e-07
7.65739e-07
7.65614e-07
7.64101e-07
7.63803e-07
7.66121e-07
7.57774e-07
7.57354e-07
7.58563e-07
7.56426e-07
7.56733e-07
7.56729e-07
7.56093e-07
7.57286e-07
7.5764e-07
7.58563e-07
7.57836e-07
7.51658e-07
7.51658e-07
7.51658e-07
7.51658e-07
7.54687e-07
7.5447e-07
7.56425e-07
7.51658e-07
7.51658e-07
7.51658e-07
7.51658e-07
7.51658e-07
7.51658e-07
7.5162e-07
7.55618e-07
7.57773e-07
7.56733e-07
7.51658e-07
7.51658e-07
7.51658e-07
7.51658e-07
7.51658e-07
7.51658e-07
7.50512e-07
7.55493e-07
7.57354e-07
7.56729e-07
7.51658e-07
7.51658e-07
7.51658e-07
7.51658e-07
7.51658e-07
7.51658e-07
7.50594e-07
7.5398e-07
7.56094e-07
7.51658e-07
7.51658e-07
7.51658e-07
7.51658e-07
7.51658e-07
7.51658e-07
7.50814e-07
7.53683e-07
7.57287e-07
7.54685e-07
7.51658e-07
7.51658e-07
7.51658e-07
7.51658e-07
7.48731e-07
7.52663e-07
7.55999e-07
7.5764e-07
7.5447e-07
7.5162e-07
7.50509e-07
7.5059e-07
7.5081e-07
7.52661e-07
7.53853e-07
7.55616e-07
7.55491e-07
7.53978e-07
7.53681e-07
7.55998e-07
7.47652e-07
7.47232e-07
7.4844e-07
7.46303e-07
7.46611e-07
7.46607e-07
7.45972e-07
7.47163e-07
7.47516e-07
7.48441e-07
7.47713e-07
7.41536e-07
7.41536e-07
7.41536e-07
7.41536e-07
7.44564e-07
7.44347e-07
7.46303e-07
7.41536e-07
7.41536e-07
7.41536e-07
7.41536e-07
7.41536e-07
7.41536e-07
7.41497e-07
7.45497e-07
7.47651e-07
7.4661e-07
7.41536e-07
7.41536e-07
7.41536e-07
7.41536e-07
7.41536e-07
7.41536e-07
7.40389e-07
7.4537e-07
7.47231e-07
7.46607e-07
7.41536e-07
7.41536e-07
7.41536e-07
7.41536e-07
7.41536e-07
7.41536e-07
7.40472e-07
7.43857e-07
7.45971e-07
7.41536e-07
7.41536e-07
7.41536e-07
7.41536e-07
7.41536e-07
7.41536e-07
7.40692e-07
7.4356e-07
7.47164e-07
7.44563e-07
7.41536e-07
7.41536e-07
7.41536e-07
7.41536e-07
7.38608e-07
7.42541e-07
7.45877e-07
7.47517e-07
7.44347e-07
7.41497e-07
7.40387e-07
7.40468e-07
7.40688e-07
7.42539e-07
7.43731e-07
7.45494e-07
7.45369e-07
7.43856e-07
7.43558e-07
7.45876e-07
7.37529e-07
7.37109e-07
7.38318e-07
7.36181e-07
7.36488e-07
7.36484e-07
7.35849e-07
7.37042e-07
7.37395e-07
7.38319e-07
7.37591e-07
7.31413e-07
7.31413e-07
7.31413e-07
7.31414e-07
7.34443e-07
7.34226e-07
7.36181e-07
7.31413e-07
7.31414e-07
7.31413e-07
7.31414e-07
7.31414e-07
7.31413e-07
7.31375e-07
7.35375e-07
7.37528e-07
7.36488e-07
7.31413e-07
7.31414e-07
7.31413e-07
7.31413e-07
7.31414e-07
7.31413e-07
7.30267e-07
7.35248e-07
7.37109e-07
7.36485e-07
7.31413e-07
7.31414e-07
7.31414e-07
7.31414e-07
7.31414e-07
7.31413e-07
7.3035e-07
7.33735e-07
7.35849e-07
7.31413e-07
7.31414e-07
7.31414e-07
7.31414e-07
7.31414e-07
7.31413e-07
7.3057e-07
7.33439e-07
7.37042e-07
7.34441e-07
7.31413e-07
7.31413e-07
7.31414e-07
7.31413e-07
7.28486e-07
7.32419e-07
7.35755e-07
7.37395e-07
7.34225e-07
7.31375e-07
7.30265e-07
7.30346e-07
7.30566e-07
7.32416e-07
7.33609e-07
7.35372e-07
7.35247e-07
7.33734e-07
7.33436e-07
7.35754e-07
7.27407e-07
7.26987e-07
7.28195e-07
7.26059e-07
7.26367e-07
7.26362e-07
7.25726e-07
7.26919e-07
7.27273e-07
7.28196e-07
7.27469e-07
7.21291e-07
7.21291e-07
7.21291e-07
7.21291e-07
7.2432e-07
7.24103e-07
7.26059e-07
7.21291e-07
7.21291e-07
7.21291e-07
7.21291e-07
7.21291e-07
7.21291e-07
7.21253e-07
7.25252e-07
7.27406e-07
7.26366e-07
7.21291e-07
7.21291e-07
7.21291e-07
7.21291e-07
7.21291e-07
7.21291e-07
7.20145e-07
7.25126e-07
7.26987e-07
7.26363e-07
7.21291e-07
7.21291e-07
7.21291e-07
7.21291e-07
7.21291e-07
7.21291e-07
7.20227e-07
7.23613e-07
7.25727e-07
7.21291e-07
7.21291e-07
7.21291e-07
7.21291e-07
7.21291e-07
7.21291e-07
7.20447e-07
7.23316e-07
7.2692e-07
7.24319e-07
7.21291e-07
7.21291e-07
7.21291e-07
7.21291e-07
7.18364e-07
7.22296e-07
7.25632e-07
7.27273e-07
7.24103e-07
7.21253e-07
7.20142e-07
7.20223e-07
7.20444e-07
7.22294e-07
7.23486e-07
7.25249e-07
7.25124e-07
7.23612e-07
7.23314e-07
7.25631e-07
7.17285e-07
7.16865e-07
7.18073e-07
7.15937e-07
7.16244e-07
7.1624e-07
7.15604e-07
7.16797e-07
7.17151e-07
7.18074e-07
7.17347e-07
7.11169e-07
7.11169e-07
7.11169e-07
7.11169e-07
7.14198e-07
7.13981e-07
7.15936e-07
7.11169e-07
7.11169e-07
7.11169e-07
7.11169e-07
7.11169e-07
7.11169e-07
7.11131e-07
7.1513e-07
7.17284e-07
7.16244e-07
7.11169e-07
7.11169e-07
7.11169e-07
7.11169e-07
7.11169e-07
7.11169e-07
7.10023e-07
7.15004e-07
7.16865e-07
7.1624e-07
7.11169e-07
7.11169e-07
7.11169e-07
7.11169e-07
7.11169e-07
7.11169e-07
7.10105e-07
7.13491e-07
7.15605e-07
7.11169e-07
7.1117e-07
7.11169e-07
7.1117e-07
7.11169e-07
7.11169e-07
7.10325e-07
7.13194e-07
7.16798e-07
7.14197e-07
7.11169e-07
7.11169e-07
7.11169e-07
7.11169e-07
7.08242e-07
7.12174e-07
7.1551e-07
7.17151e-07
7.13981e-07
7.11131e-07
7.1002e-07
7.10101e-07
7.10321e-07
7.12172e-07
7.13364e-07
7.15127e-07
7.15002e-07
7.13489e-07
7.13191e-07
7.15509e-07
7.07163e-07
7.06743e-07
7.07952e-07
7.05815e-07
7.06123e-07
7.06118e-07
7.05483e-07
7.06675e-07
7.07029e-07
7.07953e-07
7.07225e-07
7.01048e-07
7.01048e-07
7.01048e-07
7.01048e-07
7.04077e-07
7.0386e-07
7.05815e-07
7.01048e-07
7.01048e-07
7.01048e-07
7.01048e-07
7.01048e-07
7.01048e-07
7.01009e-07
7.05009e-07
7.07163e-07
7.06122e-07
7.01048e-07
7.01048e-07
7.01048e-07
7.01048e-07
7.01048e-07
7.01048e-07
6.99901e-07
7.04882e-07
7.06743e-07
7.06118e-07
7.01048e-07
7.01048e-07
7.01048e-07
7.01048e-07
7.01048e-07
7.01048e-07
6.99984e-07
7.03369e-07
7.05483e-07
7.01048e-07
7.01048e-07
7.01048e-07
7.01048e-07
7.01048e-07
7.01048e-07
7.00204e-07
7.03072e-07
7.06676e-07
7.04075e-07
7.01048e-07
7.01048e-07
7.01048e-07
7.01048e-07
6.9812e-07
7.02053e-07
7.05389e-07
7.07029e-07
7.03859e-07
7.01008e-07
6.99898e-07
6.99979e-07
7.002e-07
7.0205e-07
7.03242e-07
7.05006e-07
7.0488e-07
7.03368e-07
7.0307e-07
7.05388e-07
6.97042e-07
6.96621e-07
6.9783e-07
6.95693e-07
6.96001e-07
6.95996e-07
6.95361e-07
6.96554e-07
6.96907e-07
6.9783e-07
6.97104e-07
6.90925e-07
6.90925e-07
6.90925e-07
6.90925e-07
6.93953e-07
6.93737e-07
6.95693e-07
6.90925e-07
6.90926e-07
6.90925e-07
6.90926e-07
6.90926e-07
6.90925e-07
6.90887e-07
6.94887e-07
6.97041e-07
6.96e-07
6.90925e-07
6.90925e-07
6.90925e-07
6.90925e-07
6.90925e-07
6.90925e-07
6.89779e-07
6.9476e-07
6.96621e-07
6.95996e-07
6.90925e-07
6.90926e-07
6.90925e-07
6.90925e-07
6.90925e-07
6.90925e-07
6.89862e-07
6.93247e-07
6.95361e-07
6.90925e-07
6.90926e-07
6.90925e-07
6.90925e-07
6.90926e-07
6.90925e-07
6.90082e-07
6.92951e-07
6.96554e-07
6.93953e-07
6.90925e-07
6.90925e-07
6.90925e-07
6.90925e-07
6.87998e-07
6.91931e-07
6.95267e-07
6.96907e-07
6.93737e-07
6.90886e-07
6.89776e-07
6.89857e-07
6.90078e-07
6.91928e-07
6.9312e-07
6.94884e-07
6.94759e-07
6.93246e-07
6.92948e-07
6.95266e-07
6.86919e-07
6.86499e-07
6.87708e-07
6.85571e-07
6.85878e-07
6.85873e-07
6.85238e-07
6.8643e-07
6.86785e-07
6.87708e-07
6.86981e-07
6.80803e-07
6.80803e-07
6.80803e-07
6.80803e-07
6.83831e-07
6.83615e-07
6.8557e-07
6.80803e-07
6.80803e-07
6.80803e-07
6.80803e-07
6.80803e-07
6.80803e-07
6.80765e-07
6.84764e-07
6.86918e-07
6.85878e-07
6.80803e-07
6.80803e-07
6.80803e-07
6.80803e-07
6.80803e-07
6.80803e-07
6.79657e-07
6.84638e-07
6.86499e-07
6.85874e-07
6.80803e-07
6.80803e-07
6.80803e-07
6.80803e-07
6.80803e-07
6.80803e-07
6.79739e-07
6.83125e-07
6.85239e-07
6.80803e-07
6.80803e-07
6.80803e-07
6.80803e-07
6.80803e-07
6.80803e-07
6.79959e-07
6.82828e-07
6.86432e-07
6.8383e-07
6.80803e-07
6.80803e-07
6.80803e-07
6.80803e-07
6.77876e-07
6.81808e-07
6.85144e-07
6.86785e-07
6.83615e-07
6.80764e-07
6.79654e-07
6.79735e-07
6.79955e-07
6.81806e-07
6.82998e-07
6.84761e-07
6.84636e-07
6.83124e-07
6.82826e-07
6.85143e-07
6.76796e-07
6.76376e-07
6.77585e-07
6.75448e-07
6.75755e-07
6.75751e-07
6.75115e-07
6.76308e-07
6.76662e-07
6.77586e-07
6.76858e-07
6.70681e-07
6.70681e-07
6.70681e-07
6.70681e-07
6.73709e-07
6.73493e-07
6.75448e-07
6.70681e-07
6.70681e-07
6.70681e-07
6.70681e-07
6.70681e-07
6.70681e-07
6.70642e-07
6.74642e-07
6.76796e-07
6.75755e-07
6.70681e-07
6.70681e-07
6.70681e-07
6.70681e-07
6.70681e-07
6.70681e-07
6.69534e-07
6.74515e-07
6.76376e-07
6.75751e-07
6.70681e-07
6.70681e-07
6.70681e-07
6.70681e-07
6.70681e-07
6.70681e-07
6.69617e-07
6.73002e-07
6.75117e-07
6.70681e-07
6.70681e-07
6.70681e-07
6.70681e-07
6.70681e-07
6.70681e-07
6.69837e-07
6.72706e-07
6.76309e-07
6.73708e-07
6.70681e-07
6.70681e-07
6.70681e-07
6.70681e-07
6.67753e-07
6.71686e-07
6.75022e-07
6.76662e-07
6.73492e-07
6.70641e-07
6.69532e-07
6.69613e-07
6.69833e-07
6.71684e-07
6.72876e-07
6.74639e-07
6.74514e-07
6.73002e-07
6.72703e-07
6.75021e-07
6.66674e-07
6.66254e-07
6.67462e-07
6.65325e-07
6.65633e-07
6.65629e-07
6.64993e-07
6.66186e-07
6.6654e-07
6.67463e-07
6.66736e-07
6.60558e-07
6.60558e-07
6.60558e-07
6.60558e-07
6.63587e-07
6.6337e-07
6.65326e-07
6.60558e-07
6.60558e-07
6.60558e-07
6.60558e-07
6.60559e-07
6.60558e-07
6.6052e-07
6.6452e-07
6.66673e-07
6.65633e-07
6.60558e-07
6.60558e-07
6.60558e-07
6.60558e-07
6.60558e-07
6.60558e-07
6.59412e-07
6.64393e-07
6.66254e-07
6.65629e-07
6.60558e-07
6.60558e-07
6.60558e-07
6.60558e-07
6.60558e-07
6.60558e-07
6.59494e-07
6.6288e-07
6.64994e-07
6.60558e-07
6.60559e-07
6.60558e-07
6.60558e-07
6.60559e-07
6.60558e-07
6.59715e-07
6.62583e-07
6.66187e-07
6.63586e-07
6.60558e-07
6.60558e-07
6.60558e-07