/*--------------------------------*- C++ -*----------------------------------*\
| =========                 |                                                 |
| \\      /  F ield         | OpenFOAM: The Open Source CFD Toolbox           |
|  \\    /   O peration     | Version:  v2012                                 |
|   \\  /    A nd           | Website:  www.openfoam.com                      |
|    \\/     M anipulation  |                                                 |
\*---------------------------------------------------------------------------*/
FoamFile
{
    version     2.0;
    format      ascii;
    class       volScalarField;
    location    "0.16";
    object      p;
}
// * * * * * * * * * * * * * * * * * * * * * * * * * * * * * * * * * * * * * //

dimensions      [0 2 -2 0 0 0 0];


internalField   nonuniform List<scalar> 
189320
(
-8.77485e-07
-8.71793e-07
-8.86048e-07
-8.87227e-07
-8.94496e-07
-8.96795e-07
-8.91439e-07
-8.90251e-07
-8.89878e-07
-8.86052e-07
-8.95935e-07
-8.96203e-07
-8.98842e-07
-8.99423e-07
-8.97565e-07
-8.95934e-07
-8.8939e-07
-8.87236e-07
-8.96202e-07
-9.00184e-07
-9.01944e-07
-9.02288e-07
-9.01173e-07
-8.9823e-07
-8.95703e-07
-8.87941e-07
-8.77684e-07
-8.94528e-07
-8.9885e-07
-9.01947e-07
-9.03086e-07
-9.0327e-07
-9.02663e-07
-9.00706e-07
-8.95973e-07
-8.88008e-07
-8.71954e-07
-8.9683e-07
-8.99432e-07
-9.02288e-07
-9.03265e-07
-9.03431e-07
-9.02932e-07
-9.01263e-07
-8.96797e-07
-8.89826e-07
-8.91458e-07
-8.97567e-07
-9.01166e-07
-9.02655e-07
-9.02928e-07
-9.02065e-07
-8.99662e-07
-8.95649e-07
-8.76983e-07
-8.90264e-07
-8.95928e-07
-8.98213e-07
-9.00682e-07
-9.01245e-07
-8.99654e-07
-8.96184e-07
-8.95482e-07
-8.87929e-07
-8.89875e-07
-8.89369e-07
-8.95661e-07
-8.9592e-07
-8.9676e-07
-8.95635e-07
-8.95472e-07
-8.95944e-07
-8.87919e-07
-8.87932e-07
-8.89704e-07
-8.7694e-07
-8.87895e-07
-8.97962e-07
-8.98266e-07
-8.94887e-07
-8.927e-07
-8.92519e-07
-8.91547e-07
-8.92627e-07
-8.99998e-07
-8.98432e-07
-8.94886e-07
-8.85593e-07
-8.96788e-07
-8.99158e-07
-8.9916e-07
-8.96823e-07
-8.98976e-07
-9.01056e-07
-8.92707e-07
-8.96806e-07
-9.04328e-07
-9.0428e-07
-9.04296e-07
-9.04331e-07
-8.96781e-07
-9.1142e-07
-9.06287e-07
-8.97958e-07
-8.92519e-07
-8.99155e-07
-9.04292e-07
-9.03979e-07
-9.03985e-07
-9.04289e-07
-8.99189e-07
-9.12062e-07
-9.06655e-07
-8.9826e-07
-8.91531e-07
-8.99144e-07
-9.0429e-07
-9.03983e-07
-9.03984e-07
-9.04282e-07
-8.99173e-07
-9.12407e-07
-9.02005e-07
-8.92616e-07
-8.96819e-07
-9.04324e-07
-9.04281e-07
-9.04296e-07
-9.04326e-07
-8.96793e-07
-9.12687e-07
-9.1115e-07
-8.99975e-07
-8.98961e-07
-8.96758e-07
-8.99147e-07
-8.99159e-07
-8.96804e-07
-9.24833e-07
-9.08272e-07
-9.03201e-07
-8.98413e-07
-9.0105e-07
-9.11409e-07
-9.12063e-07
-9.12414e-07
-9.12738e-07
-9.08318e-07
-9.11645e-07
-9.06274e-07
-9.06642e-07
-9.02005e-07
-9.11161e-07
-9.03186e-07
-8.90127e-07
-8.90747e-07
-8.86902e-07
-8.83858e-07
-8.82879e-07
-8.81778e-07
-8.83922e-07
-8.91941e-07
-8.90787e-07
-8.86909e-07
-8.7602e-07
-8.86934e-07
-8.87373e-07
-8.87382e-07
-8.86942e-07
-8.90909e-07
-8.92115e-07
-8.83861e-07
-8.86933e-07
-8.90565e-07
-8.90794e-07
-8.90816e-07
-8.90565e-07
-8.86935e-07
-9.03588e-07
-8.99003e-07
-8.90124e-07
-8.8288e-07
-8.87369e-07
-8.9081e-07
-8.90883e-07
-8.90897e-07
-8.90805e-07
-8.8739e-07
-9.08299e-07
-8.98638e-07
-8.9074e-07
-8.81773e-07
-8.87364e-07
-8.90814e-07
-8.90893e-07
-8.90896e-07
-8.90802e-07
-8.87386e-07
-9.08661e-07
-8.94039e-07
-8.83922e-07
-8.86936e-07
-8.90566e-07
-8.908e-07
-8.90819e-07
-8.90565e-07
-8.86935e-07
-9.07518e-07
-9.04364e-07
-8.9192e-07
-8.90901e-07
-8.8692e-07
-8.87371e-07
-8.87379e-07
-8.86933e-07
-9.15179e-07
-9.00021e-07
-8.96249e-07
-8.90772e-07
-8.92104e-07
-9.03589e-07
-9.0828e-07
-9.08651e-07
-9.07527e-07
-9.00056e-07
-9.04323e-07
-8.98989e-07
-8.98631e-07
-8.94032e-07
-9.04357e-07
-8.96253e-07
-8.80536e-07
-8.81138e-07
-8.7758e-07
-8.742e-07
-8.72955e-07
-8.71735e-07
-8.74215e-07
-8.82488e-07
-8.81551e-07
-8.77573e-07
-8.65959e-07
-8.77064e-07
-8.77157e-07
-8.77161e-07
-8.7707e-07
-8.81737e-07
-8.82859e-07
-8.74211e-07
-8.77065e-07
-8.78332e-07
-8.78482e-07
-8.78496e-07
-8.78335e-07
-8.77065e-07
-8.94283e-07
-8.89567e-07
-8.80551e-07
-8.72971e-07
-8.77148e-07
-8.78489e-07
-8.78613e-07
-8.78621e-07
-8.78492e-07
-8.77166e-07
-8.99045e-07
-8.89072e-07
-8.81152e-07
-8.71746e-07
-8.77152e-07
-8.78497e-07
-8.78622e-07
-8.78623e-07
-8.7849e-07
-8.77161e-07
-8.99342e-07
-8.84357e-07
-8.74223e-07
-8.77063e-07
-8.78336e-07
-8.78489e-07
-8.78499e-07
-8.78335e-07
-8.77073e-07
-8.98028e-07
-8.94875e-07
-8.82492e-07
-8.81734e-07
-8.7706e-07
-8.77149e-07
-8.77156e-07
-8.77068e-07
-9.06358e-07
-8.90443e-07
-8.86957e-07
-8.81546e-07
-8.82861e-07
-8.94276e-07
-8.99039e-07
-8.99344e-07
-8.98056e-07
-8.90474e-07
-8.95177e-07
-8.89564e-07
-8.89075e-07
-8.8435e-07
-8.94885e-07
-8.86963e-07
-8.70557e-07
-8.71154e-07
-8.6768e-07
-8.64184e-07
-8.62831e-07
-8.61565e-07
-8.64217e-07
-8.72552e-07
-8.71675e-07
-8.67687e-07
-8.5577e-07
-8.66959e-07
-8.66981e-07
-8.66982e-07
-8.6696e-07
-8.71874e-07
-8.72986e-07
-8.64185e-07
-8.66959e-07
-8.67416e-07
-8.6746e-07
-8.67466e-07
-8.67418e-07
-8.66964e-07
-8.8432e-07
-8.79657e-07
-8.70565e-07
-8.62828e-07
-8.66982e-07
-8.67462e-07
-8.67505e-07
-8.6751e-07
-8.67463e-07
-8.66985e-07
-8.89124e-07
-8.79104e-07
-8.71159e-07
-8.61566e-07
-8.66981e-07
-8.67462e-07
-8.67509e-07
-8.67512e-07
-8.67461e-07
-8.66984e-07
-8.89381e-07
-8.7436e-07
-8.64214e-07
-8.6696e-07
-8.67416e-07
-8.67463e-07
-8.67468e-07
-8.67418e-07
-8.66961e-07
-8.87921e-07
-8.84951e-07
-8.72553e-07
-8.71869e-07
-8.6696e-07
-8.6698e-07
-8.66982e-07
-8.6696e-07
-8.96615e-07
-8.80479e-07
-8.77086e-07
-8.71671e-07
-8.72975e-07
-8.84321e-07
-8.89119e-07
-8.89385e-07
-8.87933e-07
-8.80497e-07
-8.85351e-07
-8.79652e-07
-8.79105e-07
-8.74364e-07
-8.84946e-07
-8.77081e-07
-8.60426e-07
-8.61021e-07
-8.57578e-07
-8.5403e-07
-8.52627e-07
-8.5135e-07
-8.54077e-07
-8.6244e-07
-8.6158e-07
-8.57581e-07
-8.45544e-07
-8.56774e-07
-8.56778e-07
-8.56778e-07
-8.56777e-07
-8.6177e-07
-8.62886e-07
-8.54035e-07
-8.56779e-07
-8.56944e-07
-8.56964e-07
-8.56964e-07
-8.56945e-07
-8.5678e-07
-8.74185e-07
-8.6954e-07
-8.60429e-07
-8.52625e-07
-8.5678e-07
-8.56964e-07
-8.56976e-07
-8.56975e-07
-8.56965e-07
-8.5678e-07
-8.78984e-07
-8.68978e-07
-8.61022e-07
-8.5135e-07
-8.56777e-07
-8.56963e-07
-8.56976e-07
-8.56974e-07
-8.56963e-07
-8.5678e-07
-8.79234e-07
-8.64223e-07
-8.54077e-07
-8.56778e-07
-8.56943e-07
-8.56964e-07
-8.56964e-07
-8.56943e-07
-8.56779e-07
-8.77737e-07
-8.74834e-07
-8.62444e-07
-8.61774e-07
-8.56776e-07
-8.56779e-07
-8.56781e-07
-8.56779e-07
-8.86582e-07
-8.7036e-07
-8.66985e-07
-8.61586e-07
-8.62888e-07
-8.74179e-07
-8.78982e-07
-8.79239e-07
-8.77752e-07
-8.70381e-07
-8.75285e-07
-8.69543e-07
-8.68974e-07
-8.64225e-07
-8.74831e-07
-8.66984e-07
-8.5024e-07
-8.50834e-07
-8.47408e-07
-8.43836e-07
-8.42395e-07
-8.41128e-07
-8.43898e-07
-8.52261e-07
-8.51409e-07
-8.47408e-07
-8.35326e-07
-8.4658e-07
-8.46568e-07
-8.4657e-07
-8.46579e-07
-8.51595e-07
-8.52721e-07
-8.43836e-07
-8.46572e-07
-8.46634e-07
-8.46639e-07
-8.46639e-07
-8.46633e-07
-8.46568e-07
-8.64001e-07
-8.59365e-07
-8.50241e-07
-8.42394e-07
-8.46566e-07
-8.46641e-07
-8.46645e-07
-8.46645e-07
-8.46642e-07
-8.46572e-07
-8.68793e-07
-8.58791e-07
-8.50833e-07
-8.41129e-07
-8.4657e-07
-8.46643e-07
-8.46647e-07
-8.46644e-07
-8.46642e-07
-8.46571e-07
-8.69037e-07
-8.54033e-07
-8.439e-07
-8.46571e-07
-8.46632e-07
-8.4664e-07
-8.46639e-07
-8.46631e-07
-8.46572e-07
-8.67543e-07
-8.64663e-07
-8.52262e-07
-8.51596e-07
-8.46574e-07
-8.46572e-07
-8.46573e-07
-8.46575e-07
-8.76443e-07
-8.60181e-07
-8.56815e-07
-8.51409e-07
-8.5271e-07
-8.64004e-07
-8.68799e-07
-8.69033e-07
-8.6755e-07
-8.60198e-07
-8.65123e-07
-8.59376e-07
-8.58792e-07
-8.54031e-07
-8.64667e-07
-8.56813e-07
-8.40034e-07
-8.40627e-07
-8.37206e-07
-8.33629e-07
-8.32177e-07
-8.30916e-07
-8.33699e-07
-8.42061e-07
-8.41211e-07
-8.37205e-07
-8.25104e-07
-8.3636e-07
-8.36365e-07
-8.36366e-07
-8.36361e-07
-8.41393e-07
-8.4252e-07
-8.33629e-07
-8.36365e-07
-8.36382e-07
-8.36387e-07
-8.36387e-07
-8.36379e-07
-8.36363e-07
-8.53792e-07
-8.49166e-07
-8.40036e-07
-8.32179e-07
-8.36366e-07
-8.36385e-07
-8.36389e-07
-8.36391e-07
-8.36384e-07
-8.36364e-07
-8.58584e-07
-8.48587e-07
-8.40628e-07
-8.30915e-07
-8.36364e-07
-8.36386e-07
-8.36389e-07
-8.3639e-07
-8.36385e-07
-8.36363e-07
-8.58822e-07
-8.43826e-07
-8.33698e-07
-8.36363e-07
-8.36382e-07
-8.36384e-07
-8.36386e-07
-8.36382e-07
-8.36363e-07
-8.5732e-07
-8.54463e-07
-8.42061e-07
-8.41395e-07
-8.36363e-07
-8.36365e-07
-8.36364e-07
-8.36361e-07
-8.66262e-07
-8.49988e-07
-8.46618e-07
-8.41213e-07
-8.42514e-07
-8.53799e-07
-8.58587e-07
-8.58823e-07
-8.57336e-07
-8.50004e-07
-8.54923e-07
-8.49173e-07
-8.48588e-07
-8.43822e-07
-8.54466e-07
-8.46623e-07
-8.29824e-07
-8.30417e-07
-8.26996e-07
-8.23419e-07
-8.21963e-07
-8.20698e-07
-8.23486e-07
-8.3185e-07
-8.31002e-07
-8.26996e-07
-8.14885e-07
-8.26148e-07
-8.26147e-07
-8.26147e-07
-8.26146e-07
-8.31185e-07
-8.32313e-07
-8.23419e-07
-8.26144e-07
-8.2616e-07
-8.26162e-07
-8.26161e-07
-8.26159e-07
-8.26153e-07
-8.4359e-07
-8.3896e-07
-8.29826e-07
-8.21964e-07
-8.26148e-07
-8.26163e-07
-8.26163e-07
-8.26163e-07
-8.2616e-07
-8.26152e-07
-8.48381e-07
-8.3838e-07
-8.30418e-07
-8.20698e-07
-8.26148e-07
-8.26158e-07
-8.26159e-07
-8.26162e-07
-8.2616e-07
-8.26151e-07
-8.48615e-07
-8.3362e-07
-8.23487e-07
-8.2615e-07
-8.26165e-07
-8.26167e-07
-8.26164e-07
-8.26161e-07
-8.26148e-07
-8.47112e-07
-8.44253e-07
-8.31849e-07
-8.31188e-07
-8.26144e-07
-8.26145e-07
-8.26147e-07
-8.26144e-07
-8.56053e-07
-8.39779e-07
-8.36408e-07
-8.31005e-07
-8.32307e-07
-8.43592e-07
-8.4838e-07
-8.48614e-07
-8.47128e-07
-8.39796e-07
-8.44718e-07
-8.38964e-07
-8.38378e-07
-8.33614e-07
-8.44255e-07
-8.36411e-07
-8.19613e-07
-8.20207e-07
-8.16787e-07
-8.13204e-07
-8.11747e-07
-8.10483e-07
-8.13277e-07
-8.21642e-07
-8.20794e-07
-8.16787e-07
-8.04671e-07
-8.15936e-07
-8.15936e-07
-8.15937e-07
-8.15937e-07
-8.20978e-07
-8.22104e-07
-8.13204e-07
-8.15936e-07
-8.15941e-07
-8.15942e-07
-8.15941e-07
-8.1594e-07
-8.15937e-07
-8.33378e-07
-8.28751e-07
-8.19615e-07
-8.11749e-07
-8.15936e-07
-8.15939e-07
-8.15942e-07
-8.15939e-07
-8.15942e-07
-8.15936e-07
-8.38169e-07
-8.2817e-07
-8.20206e-07
-8.10482e-07
-8.15937e-07
-8.15942e-07
-8.15943e-07
-8.1594e-07
-8.15945e-07
-8.15937e-07
-8.38403e-07
-8.23408e-07
-8.13277e-07
-8.15933e-07
-8.1594e-07
-8.15941e-07
-8.1594e-07
-8.1594e-07
-8.15934e-07
-8.369e-07
-8.34045e-07
-8.21641e-07
-8.20983e-07
-8.15936e-07
-8.15936e-07
-8.15936e-07
-8.15937e-07
-8.45846e-07
-8.29571e-07
-8.262e-07
-8.20796e-07
-8.22098e-07
-8.33381e-07
-8.38174e-07
-8.38404e-07
-8.36917e-07
-8.29588e-07
-8.34511e-07
-8.28756e-07
-8.28168e-07
-8.23404e-07
-8.34048e-07
-8.26204e-07
-8.094e-07
-8.09993e-07
-8.06574e-07
-8.02993e-07
-8.01533e-07
-8.0027e-07
-8.03066e-07
-8.11426e-07
-8.10581e-07
-8.06574e-07
-7.94462e-07
-8.05725e-07
-8.05725e-07
-8.05725e-07
-8.05725e-07
-8.10764e-07
-8.11891e-07
-8.02993e-07
-8.05725e-07
-8.05723e-07
-8.05724e-07
-8.05724e-07
-8.05723e-07
-8.05724e-07
-8.23162e-07
-8.18536e-07
-8.09403e-07
-8.01535e-07
-8.05724e-07
-8.05724e-07
-8.05725e-07
-8.05725e-07
-8.05724e-07
-8.05724e-07
-8.27953e-07
-8.17956e-07
-8.09994e-07
-8.0027e-07
-8.05724e-07
-8.05724e-07
-8.05725e-07
-8.05725e-07
-8.05724e-07
-8.05724e-07
-8.28186e-07
-8.13193e-07
-8.03067e-07
-8.05724e-07
-8.05723e-07
-8.05724e-07
-8.05724e-07
-8.05723e-07
-8.05724e-07
-8.26684e-07
-8.23832e-07
-8.11427e-07
-8.10769e-07
-8.05724e-07
-8.05724e-07
-8.05724e-07
-8.05724e-07
-8.3563e-07
-8.19356e-07
-8.15987e-07
-8.10583e-07
-8.11885e-07
-8.23167e-07
-8.2796e-07
-8.28189e-07
-8.26701e-07
-8.19372e-07
-8.24298e-07
-8.18543e-07
-8.17955e-07
-8.1319e-07
-8.23835e-07
-8.15992e-07
-7.99186e-07
-7.9978e-07
-7.96368e-07
-7.92777e-07
-7.9132e-07
-7.90057e-07
-7.92855e-07
-8.0121e-07
-8.00369e-07
-7.9636e-07
-7.84246e-07
-7.9551e-07
-7.9551e-07
-7.9551e-07
-7.9551e-07
-8.00551e-07
-8.01678e-07
-7.92779e-07
-7.9551e-07
-7.95511e-07
-7.95511e-07
-7.95511e-07
-7.9551e-07
-7.9551e-07
-8.12949e-07
-8.08322e-07
-7.99188e-07
-7.9132e-07
-7.9551e-07
-7.95511e-07
-7.95511e-07
-7.95511e-07
-7.9551e-07
-7.9551e-07
-8.17736e-07
-8.0774e-07
-7.99779e-07
-7.90055e-07
-7.9551e-07
-7.95511e-07
-7.9551e-07
-7.9551e-07
-7.9551e-07
-7.95509e-07
-8.17971e-07
-8.02978e-07
-7.92853e-07
-7.9551e-07
-7.9551e-07
-7.9551e-07
-7.9551e-07
-7.9551e-07
-7.9551e-07
-8.16471e-07
-8.13617e-07
-8.01214e-07
-8.00557e-07
-7.9551e-07
-7.9551e-07
-7.9551e-07
-7.9551e-07
-8.25419e-07
-8.09143e-07
-8.05772e-07
-8.0037e-07
-8.01672e-07
-8.12955e-07
-8.17744e-07
-8.17974e-07
-8.16488e-07
-8.09159e-07
-8.14084e-07
-8.08329e-07
-8.0774e-07
-8.02975e-07
-8.13621e-07
-8.05777e-07
-7.88973e-07
-7.89567e-07
-7.8615e-07
-7.82565e-07
-7.81106e-07
-7.79844e-07
-7.82644e-07
-7.90999e-07
-7.90154e-07
-7.86147e-07
-7.74031e-07
-7.85297e-07
-7.85297e-07
-7.85297e-07
-7.85298e-07
-7.9034e-07
-7.91465e-07
-7.82567e-07
-7.85298e-07
-7.85299e-07
-7.85299e-07
-7.85299e-07
-7.85299e-07
-7.85298e-07
-8.02737e-07
-7.9811e-07
-7.88976e-07
-7.81108e-07
-7.85298e-07
-7.85299e-07
-7.85298e-07
-7.85298e-07
-7.85299e-07
-7.85297e-07
-8.07525e-07
-7.97529e-07
-7.89567e-07
-7.79843e-07
-7.85297e-07
-7.85299e-07
-7.85299e-07
-7.85299e-07
-7.85298e-07
-7.85297e-07
-8.0776e-07
-7.92767e-07
-7.82641e-07
-7.85298e-07
-7.85299e-07
-7.85298e-07
-7.85298e-07
-7.85298e-07
-7.85298e-07
-8.0626e-07
-8.03405e-07
-7.91002e-07
-7.90345e-07
-7.85298e-07
-7.85297e-07
-7.85297e-07
-7.85298e-07
-8.15207e-07
-7.98932e-07
-7.9556e-07
-7.90157e-07
-7.91461e-07
-8.02743e-07
-8.07533e-07
-8.07766e-07
-8.06278e-07
-7.98948e-07
-8.03872e-07
-7.98117e-07
-7.97529e-07
-7.92765e-07
-8.03409e-07
-7.95565e-07
-7.78763e-07
-7.79356e-07
-7.75943e-07
-7.72354e-07
-7.70896e-07
-7.69634e-07
-7.72433e-07
-7.80789e-07
-7.79944e-07
-7.75937e-07
-7.63821e-07
-7.75087e-07
-7.75087e-07
-7.75087e-07
-7.75086e-07
-7.80129e-07
-7.81253e-07
-7.72356e-07
-7.75087e-07
-7.75087e-07
-7.75087e-07
-7.75087e-07
-7.75086e-07
-7.75087e-07
-7.92526e-07
-7.87899e-07
-7.78765e-07
-7.70897e-07
-7.75087e-07
-7.75087e-07
-7.75087e-07
-7.75087e-07
-7.75087e-07
-7.75087e-07
-7.97313e-07
-7.87318e-07
-7.79356e-07
-7.69632e-07
-7.75087e-07
-7.75087e-07
-7.75087e-07
-7.75087e-07
-7.75087e-07
-7.75087e-07
-7.97548e-07
-7.82555e-07
-7.7243e-07
-7.75087e-07
-7.75087e-07
-7.75087e-07
-7.75087e-07
-7.75087e-07
-7.75087e-07
-7.96048e-07
-7.93195e-07
-7.80791e-07
-7.80134e-07
-7.75087e-07
-7.75087e-07
-7.75087e-07
-7.75087e-07
-8.04996e-07
-7.88721e-07
-7.85349e-07
-7.79947e-07
-7.8125e-07
-7.92532e-07
-7.97322e-07
-7.97554e-07
-7.96066e-07
-7.88737e-07
-7.93661e-07
-7.87907e-07
-7.87319e-07
-7.82554e-07
-7.93198e-07
-7.85355e-07
-7.68551e-07
-7.69144e-07
-7.6573e-07
-7.62142e-07
-7.60684e-07
-7.59421e-07
-7.62221e-07
-7.70575e-07
-7.6973e-07
-7.65725e-07
-7.53609e-07
-7.64875e-07
-7.64875e-07
-7.64875e-07
-7.64875e-07
-7.69916e-07
-7.71041e-07
-7.62143e-07
-7.64875e-07
-7.64875e-07
-7.64875e-07
-7.64875e-07
-7.64875e-07
-7.64875e-07
-7.82314e-07
-7.77688e-07
-7.68553e-07
-7.60685e-07
-7.64875e-07
-7.64875e-07
-7.64875e-07
-7.64875e-07
-7.64875e-07
-7.64875e-07
-7.87102e-07
-7.77106e-07
-7.69144e-07
-7.5942e-07
-7.64875e-07
-7.64875e-07
-7.64875e-07
-7.64875e-07
-7.64875e-07
-7.64875e-07
-7.87337e-07
-7.72344e-07
-7.62218e-07
-7.64875e-07
-7.64875e-07
-7.64875e-07
-7.64875e-07
-7.64875e-07
-7.64875e-07
-7.85837e-07
-7.82983e-07
-7.70579e-07
-7.69922e-07
-7.64875e-07
-7.64875e-07
-7.64875e-07
-7.64876e-07
-7.94785e-07
-7.78509e-07
-7.75137e-07
-7.69735e-07
-7.71038e-07
-7.8232e-07
-7.8711e-07
-7.87343e-07
-7.85855e-07
-7.78526e-07
-7.8345e-07
-7.77695e-07
-7.77107e-07
-7.72342e-07
-7.82987e-07
-7.75143e-07
-7.58341e-07
-7.58934e-07
-7.5552e-07
-7.51932e-07
-7.50474e-07
-7.49211e-07
-7.52011e-07
-7.60366e-07
-7.59522e-07
-7.55514e-07
-7.434e-07
-7.54665e-07
-7.54665e-07
-7.54665e-07
-7.54664e-07
-7.59706e-07
-7.60831e-07
-7.51933e-07
-7.54664e-07
-7.54665e-07
-7.54665e-07
-7.54665e-07
-7.54665e-07
-7.54665e-07
-7.72104e-07
-7.67477e-07
-7.58342e-07
-7.50475e-07
-7.54665e-07
-7.54665e-07
-7.54665e-07
-7.54665e-07
-7.54665e-07
-7.54665e-07
-7.76891e-07
-7.66895e-07
-7.58934e-07
-7.49209e-07
-7.54665e-07
-7.54665e-07
-7.54665e-07
-7.54665e-07
-7.54665e-07
-7.54665e-07
-7.77126e-07
-7.62133e-07
-7.52008e-07
-7.54665e-07
-7.54665e-07
-7.54665e-07
-7.54665e-07
-7.54665e-07
-7.54665e-07
-7.75626e-07
-7.72772e-07
-7.60369e-07
-7.59712e-07
-7.54665e-07
-7.54665e-07
-7.54665e-07
-7.54665e-07
-7.84574e-07
-7.68299e-07
-7.64927e-07
-7.59525e-07
-7.60828e-07
-7.7211e-07
-7.769e-07
-7.77133e-07
-7.75645e-07
-7.68315e-07
-7.73239e-07
-7.67484e-07
-7.66897e-07
-7.62131e-07
-7.72776e-07
-7.64933e-07
-7.48131e-07
-7.48724e-07
-7.4531e-07
-7.41721e-07
-7.40264e-07
-7.39001e-07
-7.41801e-07
-7.50153e-07
-7.49311e-07
-7.45304e-07
-7.33189e-07
-7.44453e-07
-7.44453e-07
-7.44453e-07
-7.44453e-07
-7.49495e-07
-7.50621e-07
-7.41723e-07
-7.44453e-07
-7.44453e-07
-7.44453e-07
-7.44453e-07
-7.44453e-07
-7.44453e-07
-7.61893e-07
-7.57267e-07
-7.48133e-07
-7.40264e-07
-7.44454e-07
-7.44453e-07
-7.44453e-07
-7.44453e-07
-7.44453e-07
-7.44453e-07
-7.6668e-07
-7.56685e-07
-7.48724e-07
-7.38999e-07
-7.44453e-07
-7.44453e-07
-7.44453e-07
-7.44453e-07
-7.44453e-07
-7.44453e-07
-7.66915e-07
-7.51923e-07
-7.41797e-07
-7.44454e-07
-7.44453e-07
-7.44453e-07
-7.44453e-07
-7.44453e-07
-7.44453e-07
-7.65415e-07
-7.62562e-07
-7.50158e-07
-7.49501e-07
-7.44453e-07
-7.44453e-07
-7.44453e-07
-7.44453e-07
-7.74363e-07
-7.58088e-07
-7.54716e-07
-7.49314e-07
-7.50617e-07
-7.61899e-07
-7.66689e-07
-7.66922e-07
-7.65433e-07
-7.58104e-07
-7.63028e-07
-7.57274e-07
-7.56686e-07
-7.5192e-07
-7.62566e-07
-7.54722e-07
-7.37918e-07
-7.38511e-07
-7.35098e-07
-7.31509e-07
-7.3005e-07
-7.28788e-07
-7.31588e-07
-7.39942e-07
-7.39099e-07
-7.35092e-07
-7.22976e-07
-7.3424e-07
-7.3424e-07
-7.3424e-07
-7.3424e-07
-7.39283e-07
-7.4041e-07
-7.3151e-07
-7.3424e-07
-7.3424e-07
-7.3424e-07
-7.3424e-07
-7.3424e-07
-7.3424e-07
-7.51681e-07
-7.47053e-07
-7.3792e-07
-7.30051e-07
-7.3424e-07
-7.3424e-07
-7.3424e-07
-7.3424e-07
-7.3424e-07
-7.3424e-07
-7.56467e-07
-7.46472e-07
-7.38511e-07
-7.28786e-07
-7.3424e-07
-7.3424e-07
-7.3424e-07
-7.3424e-07
-7.3424e-07
-7.3424e-07
-7.56702e-07
-7.4171e-07
-7.31584e-07
-7.3424e-07
-7.3424e-07
-7.3424e-07
-7.3424e-07
-7.3424e-07
-7.3424e-07
-7.55202e-07
-7.52349e-07
-7.39945e-07
-7.39288e-07
-7.3424e-07
-7.3424e-07
-7.3424e-07
-7.3424e-07
-7.6415e-07
-7.47875e-07
-7.44504e-07
-7.39101e-07
-7.40404e-07
-7.51686e-07
-7.56475e-07
-7.56706e-07
-7.5522e-07
-7.47891e-07
-7.52816e-07
-7.47061e-07
-7.46473e-07
-7.41707e-07
-7.52353e-07
-7.44509e-07
-7.27703e-07
-7.28296e-07
-7.24882e-07
-7.21293e-07
-7.19835e-07
-7.18573e-07
-7.21372e-07
-7.29729e-07
-7.28884e-07
-7.24877e-07
-7.12761e-07
-7.24025e-07
-7.24025e-07
-7.24025e-07
-7.24025e-07
-7.29068e-07
-7.30194e-07
-7.21295e-07
-7.24025e-07
-7.24025e-07
-7.24025e-07
-7.24025e-07
-7.24025e-07
-7.24025e-07
-7.41466e-07
-7.36838e-07
-7.27705e-07
-7.19836e-07
-7.24025e-07
-7.24025e-07
-7.24025e-07
-7.24025e-07
-7.24025e-07
-7.24025e-07
-7.46252e-07
-7.36257e-07
-7.28296e-07
-7.18571e-07
-7.24025e-07
-7.24025e-07
-7.24025e-07
-7.24025e-07
-7.24025e-07
-7.24025e-07
-7.46487e-07
-7.31494e-07
-7.21369e-07
-7.24025e-07
-7.24025e-07
-7.24025e-07
-7.24025e-07
-7.24025e-07
-7.24025e-07
-7.44987e-07
-7.42133e-07
-7.29731e-07
-7.29073e-07
-7.24026e-07
-7.24026e-07
-7.24026e-07
-7.24026e-07
-7.53936e-07
-7.37659e-07
-7.34288e-07
-7.28886e-07
-7.30189e-07
-7.41472e-07
-7.46261e-07
-7.46494e-07
-7.45006e-07
-7.37677e-07
-7.426e-07
-7.36847e-07
-7.36259e-07
-7.31496e-07
-7.42139e-07
-7.34295e-07
-7.17488e-07
-7.1808e-07
-7.14667e-07
-7.11078e-07
-7.0962e-07
-7.08358e-07
-7.11158e-07
-7.19515e-07
-7.18668e-07
-7.14662e-07
-7.02546e-07
-7.13811e-07
-7.13811e-07
-7.13811e-07
-7.13811e-07
-7.18854e-07
-7.19979e-07
-7.1108e-07
-7.13811e-07
-7.13811e-07
-7.13811e-07
-7.13811e-07
-7.13811e-07
-7.13811e-07
-7.31252e-07
-7.26624e-07
-7.1749e-07
-7.09622e-07
-7.13811e-07
-7.13811e-07
-7.13811e-07
-7.13811e-07
-7.13811e-07
-7.13811e-07
-7.36038e-07
-7.26042e-07
-7.18081e-07
-7.08356e-07
-7.13811e-07
-7.13811e-07
-7.13811e-07
-7.13811e-07
-7.13811e-07
-7.13811e-07
-7.36273e-07
-7.2128e-07
-7.11155e-07
-7.13811e-07
-7.13811e-07
-7.13811e-07
-7.13811e-07
-7.13811e-07
-7.13811e-07
-7.34773e-07
-7.31919e-07
-7.19516e-07
-7.18859e-07
-7.13811e-07
-7.13811e-07
-7.13811e-07
-7.13811e-07
-7.43721e-07
-7.27446e-07
-7.24074e-07
-7.18671e-07
-7.19974e-07
-7.31257e-07
-7.36043e-07
-7.36276e-07
-7.34791e-07
-7.27462e-07
-7.32386e-07
-7.26632e-07
-7.26044e-07
-7.21279e-07
-7.31926e-07
-7.2408e-07
-7.07275e-07
-7.07868e-07
-7.04454e-07
-7.00866e-07
-6.99408e-07
-6.98145e-07
-7.00942e-07
-7.09303e-07
-7.08457e-07
-7.04449e-07
-6.92334e-07
-7.03599e-07
-7.03599e-07
-7.03599e-07
-7.03599e-07
-7.0864e-07
-7.09768e-07
-7.00867e-07
-7.03599e-07
-7.03599e-07
-7.03599e-07
-7.03599e-07
-7.03599e-07
-7.03599e-07
-7.2104e-07
-7.16412e-07
-7.07277e-07
-6.99409e-07
-7.03599e-07
-7.03599e-07
-7.03599e-07
-7.03599e-07
-7.03599e-07
-7.03599e-07
-7.25826e-07
-7.1583e-07
-7.07868e-07
-6.98144e-07
-7.03599e-07
-7.03599e-07
-7.03599e-07
-7.03599e-07
-7.03599e-07
-7.03599e-07
-7.2606e-07
-7.11068e-07
-7.00943e-07
-7.03599e-07
-7.03599e-07
-7.03599e-07
-7.03599e-07
-7.03599e-07
-7.03599e-07
-7.24561e-07
-7.21707e-07
-7.09303e-07
-7.08646e-07
-7.03599e-07
-7.03599e-07
-7.03599e-07
-7.03599e-07
-7.33509e-07
-7.17233e-07
-7.13861e-07
-7.08459e-07
-7.09762e-07
-7.21044e-07
-7.25832e-07
-7.26066e-07
-7.24581e-07
-7.1725e-07
-7.22174e-07
-7.16419e-07
-7.15832e-07
-7.11068e-07
-7.21713e-07
-7.13867e-07
-6.97064e-07
-6.97656e-07
-6.94244e-07
-6.90656e-07
-6.89196e-07
-6.87934e-07
-6.90732e-07
-6.99093e-07
-6.98247e-07
-6.94237e-07
-6.82122e-07
-6.93388e-07
-6.93388e-07
-6.93388e-07
-6.93388e-07
-6.98429e-07
-6.99556e-07
-6.90656e-07
-6.93388e-07
-6.93388e-07
-6.93388e-07
-6.93388e-07
-6.93388e-07
-6.93388e-07
-7.10829e-07
-7.062e-07
-6.97066e-07
-6.89198e-07
-6.93388e-07
-6.93388e-07
-6.93388e-07
-6.93388e-07
-6.93388e-07
-6.93388e-07
-7.15614e-07
-7.05618e-07
-6.97657e-07
-6.87932e-07
-6.93388e-07
-6.93388e-07
-6.93388e-07
-6.93388e-07
-6.93388e-07
-6.93388e-07
-7.15849e-07
-7.00856e-07
-6.90731e-07
-6.93388e-07
-6.93388e-07
-6.93388e-07
-6.93388e-07
-6.93388e-07
-6.93388e-07
-7.1435e-07
-7.11496e-07
-6.99092e-07
-6.98435e-07
-6.93388e-07
-6.93388e-07
-6.93388e-07
-6.93388e-07
-7.23297e-07
-7.07022e-07
-7.0365e-07
-6.98247e-07
-6.99551e-07
-7.10833e-07
-7.15621e-07
-7.15854e-07
-7.14369e-07
-7.07038e-07
-7.11962e-07
-7.06208e-07
-7.0562e-07
-7.00857e-07
-7.11501e-07
-7.03652e-07
-6.86854e-07
-6.87446e-07
-6.84035e-07
-6.80446e-07
-6.78986e-07
-6.77724e-07
-6.80521e-07
-6.88882e-07
-6.88036e-07
-6.84027e-07
-6.71913e-07
-6.83177e-07
-6.83177e-07
-6.83177e-07
-6.83177e-07
-6.88217e-07
-6.89346e-07
-6.80446e-07
-6.83177e-07
-6.83177e-07
-6.83177e-07
-6.83177e-07
-6.83177e-07
-6.83177e-07
-7.00618e-07
-6.9599e-07
-6.86855e-07
-6.78988e-07
-6.83177e-07
-6.83177e-07
-6.83177e-07
-6.83177e-07
-6.83177e-07
-6.83177e-07
-7.05404e-07
-6.95408e-07
-6.87447e-07
-6.77722e-07
-6.83177e-07
-6.83177e-07
-6.83177e-07
-6.83177e-07
-6.83177e-07
-6.83177e-07
-7.05639e-07
-6.90646e-07
-6.80521e-07
-6.83177e-07
-6.83177e-07
-6.83177e-07
-6.83177e-07
-6.83177e-07
-6.83177e-07
-7.04139e-07
-7.01285e-07
-6.88881e-07
-6.88224e-07
-6.83177e-07
-6.83177e-07
-6.83177e-07
-6.83177e-07
-7.13086e-07
-6.96811e-07
-6.93439e-07
-6.88037e-07
-6.8934e-07
-7.00622e-07
-7.0541e-07
-7.05643e-07
-7.04158e-07
-6.96827e-07
-7.01751e-07
-6.95997e-07
-6.9541e-07
-6.90646e-07
-7.0129e-07
-6.93441e-07
-6.76643e-07
-6.77235e-07
-6.73823e-07
-6.70234e-07
-6.68775e-07
-6.67512e-07
-6.7031e-07
-6.78672e-07
-6.77825e-07
-6.73816e-07
-6.61702e-07
-6.72966e-07
-6.72966e-07
-6.72966e-07
-6.72966e-07
-6.78005e-07
-6.79133e-07
-6.70234e-07
-6.72966e-07
-6.72966e-07
-6.72966e-07
-6.72966e-07
-6.72966e-07
-6.72966e-07
-6.90407e-07
-6.85779e-07
-6.76644e-07
-6.68776e-07
-6.72966e-07
-6.72966e-07
-6.72966e-07
-6.72966e-07
-6.72966e-07
-6.72966e-07
-6.95192e-07
-6.85197e-07
-6.77235e-07
-6.6751e-07
-6.72966e-07
-6.72966e-07
-6.72966e-07
-6.72966e-07
-6.72966e-07
-6.72966e-07
-6.95427e-07
-6.80435e-07
-6.70309e-07
-6.72966e-07
-6.72966e-07
-6.72966e-07
-6.72966e-07
-6.72966e-07
-6.72966e-07
-6.93928e-07
-6.91074e-07
-6.7867e-07
-6.78013e-07
-6.72966e-07
-6.72966e-07
-6.72966e-07
-6.72966e-07
-7.02875e-07
-6.866e-07
-6.83229e-07
-6.77826e-07
-6.79129e-07
-6.90411e-07
-6.95199e-07
-6.95432e-07
-6.93947e-07
-6.86616e-07
-6.9154e-07
-6.85786e-07
-6.85199e-07
-6.80435e-07
-6.91079e-07
-6.83231e-07
-6.66431e-07
-6.67023e-07
-6.63612e-07
-6.60022e-07
-6.58563e-07
-6.57301e-07
-6.60098e-07
-6.68459e-07
-6.67613e-07
-6.63605e-07
-6.5149e-07
-6.62755e-07
-6.62755e-07
-6.62754e-07
-6.62754e-07
-6.67794e-07
-6.68923e-07
-6.60023e-07
-6.62754e-07
-6.62754e-07
-6.62754e-07
-6.62754e-07
-6.62754e-07
-6.62754e-07
-6.80195e-07
-6.75567e-07
-6.66433e-07
-6.58565e-07
-6.62754e-07
-6.62754e-07
-6.62754e-07
-6.62754e-07
-6.62754e-07
-6.62754e-07
-6.84981e-07
-6.74985e-07
-6.67024e-07
-6.57299e-07
-6.62754e-07
-6.62754e-07
-6.62754e-07
-6.62754e-07
-6.62754e-07
-6.62754e-07
-6.85216e-07
-6.70223e-07
-6.60098e-07
-6.62754e-07
-6.62754e-07
-6.62754e-07
-6.62754e-07
-6.62754e-07
-6.62754e-07
-6.83716e-07
-6.80862e-07
-6.68458e-07
-6.67801e-07
-6.62754e-07
-6.62754e-07
-6.62754e-07
-6.62754e-07
-6.92664e-07
-6.76388e-07
-6.73017e-07
-6.67614e-07
-6.68917e-07
-6.80199e-07
-6.84987e-07
-6.85221e-07
-6.83735e-07
-6.76404e-07
-6.81329e-07
-6.75574e-07
-6.74987e-07
-6.70224e-07
-6.80867e-07
-6.73019e-07
-6.5622e-07
-6.56812e-07
-6.534e-07
-6.49811e-07
-6.48351e-07
-6.4709e-07
-6.49888e-07
-6.58249e-07
-6.57402e-07
-6.53393e-07
-6.41279e-07
-6.52542e-07
-6.52542e-07
-6.52542e-07
-6.52543e-07
-6.57582e-07
-6.58711e-07
-6.49811e-07
-6.52542e-07
-6.52542e-07
-6.52542e-07
-6.52542e-07
-6.52542e-07
-6.52542e-07
-6.69983e-07
-6.65355e-07
-6.56221e-07
-6.48353e-07
-6.52542e-07
-6.52542e-07
-6.52542e-07
-6.52542e-07
-6.52542e-07
-6.52542e-07
-6.74769e-07
-6.64774e-07
-6.56812e-07
-6.47087e-07
-6.52542e-07
-6.52542e-07
-6.52542e-07
-6.52542e-07
-6.52542e-07
-6.52542e-07
-6.75004e-07
-6.60012e-07
-6.49886e-07
-6.52542e-07
-6.52542e-07
-6.52542e-07
-6.52542e-07
-6.52542e-07
-6.52542e-07
-6.73504e-07
-6.70651e-07
-6.58247e-07
-6.5759e-07
-6.52542e-07
-6.52542e-07
-6.52542e-07
-6.52542e-07
-6.82452e-07
-6.66177e-07
-6.62806e-07
-6.57403e-07
-6.58706e-07
-6.69988e-07
-6.74776e-07
-6.75009e-07
-6.73524e-07
-6.66193e-07
-6.71117e-07
-6.65363e-07
-6.64776e-07
-6.60012e-07
-6.70656e-07
-6.62808e-07
-6.46006e-07
-6.46599e-07
-6.43187e-07
-6.39597e-07
-6.38137e-07
-6.36876e-07
-6.39675e-07
-6.48034e-07
-6.47189e-07
-6.4318e-07
-6.31065e-07
-6.42328e-07
-6.42328e-07
-6.42328e-07
-6.42328e-07
-6.47368e-07
-6.48497e-07
-6.39598e-07
-6.42328e-07
-6.42328e-07
-6.42328e-07
-6.42328e-07
-6.42328e-07
-6.42328e-07
-6.59769e-07
-6.55141e-07
-6.46008e-07
-6.38139e-07
-6.42328e-07
-6.42328e-07
-6.42328e-07
-6.42328e-07
-6.42328e-07
-6.42328e-07
-6.64555e-07
-6.5456e-07
-6.46599e-07
-6.36874e-07
-6.42328e-07
-6.42328e-07
-6.42328e-07
-6.42328e-07
-6.42328e-07
-6.42328e-07
-6.6479e-07
-6.49797e-07
-6.39673e-07
-6.42328e-07
-6.42328e-07
-6.42328e-07
-6.42328e-07
-6.42328e-07
-6.42328e-07
-6.6329e-07
-6.60437e-07
-6.48034e-07
-6.47376e-07
-6.42328e-07
-6.42328e-07
-6.42329e-07
-6.42328e-07
-6.72238e-07
-6.55963e-07
-6.52591e-07
-6.47189e-07
-6.48492e-07
-6.59774e-07
-6.64562e-07
-6.64795e-07
-6.6331e-07
-6.55979e-07
-6.60903e-07
-6.5515e-07
-6.54562e-07
-6.49798e-07
-6.60442e-07
-6.52594e-07
-6.3579e-07
-6.36383e-07
-6.32971e-07
-6.29381e-07
-6.27922e-07
-6.2666e-07
-6.29459e-07
-6.37819e-07
-6.36973e-07
-6.32964e-07
-6.20849e-07
-6.32113e-07
-6.32113e-07
-6.32113e-07
-6.32113e-07
-6.37154e-07
-6.38282e-07
-6.29382e-07
-6.32113e-07
-6.32113e-07
-6.32113e-07
-6.32113e-07
-6.32113e-07
-6.32113e-07
-6.49554e-07
-6.44926e-07
-6.35792e-07
-6.27924e-07
-6.32113e-07
-6.32113e-07
-6.32113e-07
-6.32113e-07
-6.32113e-07
-6.32113e-07
-6.5434e-07
-6.44344e-07
-6.36383e-07
-6.26659e-07
-6.32113e-07
-6.32113e-07
-6.32113e-07
-6.32113e-07
-6.32113e-07
-6.32113e-07
-6.54574e-07
-6.39582e-07
-6.29456e-07
-6.32113e-07
-6.32113e-07
-6.32113e-07
-6.32113e-07
-6.32113e-07
-6.32113e-07
-6.53075e-07
-6.50221e-07
-6.37818e-07
-6.3716e-07
-6.32113e-07
-6.32113e-07
-6.32113e-07
-6.32113e-07
-6.62022e-07
-6.45747e-07
-6.42376e-07
-6.36974e-07
-6.38276e-07
-6.49561e-07
-6.54348e-07
-6.54582e-07
-6.53095e-07
-6.45763e-07
-6.50688e-07
-6.44933e-07
-6.44346e-07
-6.39583e-07
-6.50226e-07
-6.42378e-07
-6.25577e-07
-6.2617e-07
-6.22758e-07
-6.19169e-07
-6.17709e-07
-6.16447e-07
-6.19247e-07
-6.27604e-07
-6.2676e-07
-6.2275e-07
-6.10635e-07
-6.21901e-07
-6.21901e-07
-6.21901e-07
-6.21901e-07
-6.26946e-07
-6.28069e-07
-6.19169e-07
-6.21901e-07
-6.219e-07
-6.21901e-07
-6.21901e-07
-6.21901e-07
-6.21901e-07
-6.39341e-07
-6.34713e-07
-6.25578e-07
-6.17711e-07
-6.219e-07
-6.21901e-07
-6.21901e-07
-6.21901e-07
-6.21901e-07
-6.21901e-07
-6.44126e-07
-6.34131e-07
-6.26169e-07
-6.16446e-07
-6.21901e-07
-6.21901e-07
-6.21901e-07
-6.21901e-07
-6.21901e-07
-6.21901e-07
-6.44361e-07
-6.29369e-07
-6.19243e-07
-6.21901e-07
-6.219e-07
-6.21901e-07
-6.21901e-07
-6.219e-07
-6.21901e-07
-6.42862e-07
-6.40008e-07
-6.27604e-07
-6.26947e-07
-6.219e-07
-6.219e-07
-6.219e-07
-6.21901e-07
-6.5181e-07
-6.35534e-07
-6.32163e-07
-6.2676e-07
-6.28063e-07
-6.39348e-07
-6.44135e-07
-6.44369e-07
-6.42882e-07
-6.3555e-07
-6.40474e-07
-6.3472e-07
-6.34133e-07
-6.2937e-07
-6.40013e-07
-6.32165e-07
-6.15366e-07
-6.15958e-07
-6.12546e-07
-6.08958e-07
-6.07498e-07
-6.06236e-07
-6.09035e-07
-6.17394e-07
-6.16548e-07
-6.1254e-07
-6.00425e-07
-6.1169e-07
-6.1169e-07
-6.1169e-07
-6.1169e-07
-6.16735e-07
-6.17858e-07
-6.08958e-07
-6.11689e-07
-6.11689e-07
-6.11689e-07
-6.11689e-07
-6.11689e-07
-6.11689e-07
-6.2913e-07
-6.24502e-07
-6.15368e-07
-6.075e-07
-6.1169e-07