/*--------------------------------*- C++ -*----------------------------------*\
| =========                 |                                                 |
| \\      /  F ield         | OpenFOAM: The Open Source CFD Toolbox           |
|  \\    /   O peration     | Version:  v2012                                 |
|   \\  /    A nd           | Website:  www.openfoam.com                      |
|    \\/     M anipulation  |                                                 |
\*---------------------------------------------------------------------------*/
FoamFile
{
    version     2.0;
    format      ascii;
    class       volScalarField;
    location    "0.08";
    object      p;
}
// * * * * * * * * * * * * * * * * * * * * * * * * * * * * * * * * * * * * * //

dimensions      [0 2 -2 0 0 0 0];


internalField   nonuniform List<scalar> 
189320
(
-3.96729e-06
-3.94861e-06
-3.96884e-06
-3.98024e-06
-4.00186e-06
-4.00751e-06
-3.99394e-06
-3.9868e-06
-3.97494e-06
-3.96882e-06
-4.00125e-06
-4.0058e-06
-4.01375e-06
-4.01534e-06
-4.0102e-06
-4.00395e-06
-3.984e-06
-3.9802e-06
-4.00581e-06
-4.01688e-06
-4.02213e-06
-4.02314e-06
-4.02e-06
-4.01128e-06
-4.00198e-06
-3.98295e-06
-3.96765e-06
-4.00184e-06
-4.01375e-06
-4.02214e-06
-4.02527e-06
-4.02578e-06
-4.02414e-06
-4.01888e-06
-4.00625e-06
-3.98801e-06
-3.9489e-06
-4.00761e-06
-4.01535e-06
-4.02314e-06
-4.02577e-06
-4.02623e-06
-4.02488e-06
-4.02037e-06
-4.00943e-06
-3.98443e-06
-3.994e-06
-4.01021e-06
-4.01999e-06
-4.02413e-06
-4.02488e-06
-4.02253e-06
-4.01584e-06
-4.00396e-06
-3.9693e-06
-3.98686e-06
-4.00395e-06
-4.01126e-06
-4.01885e-06
-4.02035e-06
-4.01583e-06
-4.00558e-06
-3.99878e-06
-3.98099e-06
-3.97497e-06
-3.98398e-06
-4.00195e-06
-4.00619e-06
-4.00936e-06
-4.00393e-06
-3.99874e-06
-3.99125e-06
-3.98285e-06
-3.98796e-06
-3.98413e-06
-3.96918e-06
-3.98092e-06
-3.98689e-06
-3.98863e-06
-3.98194e-06
-3.97252e-06
-3.97106e-06
-3.96502e-06
-3.97129e-06
-3.99469e-06
-3.99009e-06
-3.98198e-06
-3.95293e-06
-3.97101e-06
-3.97911e-06
-3.97917e-06
-3.97106e-06
-3.98608e-06
-3.99181e-06
-3.97248e-06
-3.97101e-06
-3.99787e-06
-4.00043e-06
-4.00049e-06
-3.99787e-06
-3.97098e-06
-4.01673e-06
-4.00383e-06
-3.98683e-06
-3.97105e-06
-3.97914e-06
-4.00049e-06
-4.0011e-06
-4.00111e-06
-4.00047e-06
-3.97918e-06
-4.01926e-06
-4.00405e-06
-3.98861e-06
-3.96499e-06
-3.97912e-06
-4.00048e-06
-4.00111e-06
-4.00111e-06
-4.00044e-06
-3.97915e-06
-4.02018e-06
-3.99412e-06
-3.97125e-06
-3.97103e-06
-3.99786e-06
-4.00046e-06
-4.00049e-06
-3.99785e-06
-3.971e-06
-4.02007e-06
-4.01136e-06
-3.99463e-06
-3.98606e-06
-3.97094e-06
-3.97908e-06
-3.97915e-06
-3.97098e-06
-4.04724e-06
-4.00784e-06
-3.99807e-06
-3.99005e-06
-3.99179e-06
-4.0167e-06
-4.01927e-06
-4.0202e-06
-4.02007e-06
-4.0079e-06
-4.01518e-06
-4.00383e-06
-4.00405e-06
-3.99412e-06
-4.01135e-06
-3.99802e-06
-3.9517e-06
-3.95298e-06
-3.94535e-06
-3.93541e-06
-3.93308e-06
-3.9304e-06
-3.93464e-06
-3.95777e-06
-3.95368e-06
-3.94537e-06
-3.91638e-06
-3.93084e-06
-3.93262e-06
-3.93266e-06
-3.93086e-06
-3.95198e-06
-3.95088e-06
-3.93543e-06
-3.93083e-06
-3.94196e-06
-3.94382e-06
-3.9439e-06
-3.94196e-06
-3.93083e-06
-3.97808e-06
-3.96853e-06
-3.95167e-06
-3.93306e-06
-3.93262e-06
-3.94388e-06
-3.94528e-06
-3.9453e-06
-3.94385e-06
-3.93267e-06
-3.9884e-06
-3.96779e-06
-3.95295e-06
-3.93038e-06
-3.93261e-06
-3.94388e-06
-3.9453e-06
-3.9453e-06
-3.94384e-06
-3.93266e-06
-3.99043e-06
-3.95397e-06
-3.93462e-06
-3.93083e-06
-3.94195e-06
-3.94384e-06
-3.94389e-06
-3.94194e-06
-3.93083e-06
-3.9866e-06
-3.9788e-06
-3.95778e-06
-3.95195e-06
-3.93078e-06
-3.9326e-06
-3.93264e-06
-3.93082e-06
-3.99974e-06
-3.96767e-06
-3.96271e-06
-3.95336e-06
-3.95083e-06
-3.97805e-06
-3.98839e-06
-3.9904e-06
-3.98654e-06
-3.96772e-06
-3.97842e-06
-3.9685e-06
-3.96776e-06
-3.95394e-06
-3.97876e-06
-3.96269e-06
-3.90933e-06
-3.91037e-06
-3.90441e-06
-3.89308e-06
-3.89034e-06
-3.88767e-06
-3.89256e-06
-3.91616e-06
-3.91269e-06
-3.90414e-06
-3.87358e-06
-3.88878e-06
-3.88917e-06
-3.88919e-06
-3.88879e-06
-3.91095e-06
-3.90958e-06
-3.89314e-06
-3.88879e-06
-3.89247e-06
-3.89333e-06
-3.89337e-06
-3.89247e-06
-3.88877e-06
-3.93532e-06
-3.92663e-06
-3.90932e-06
-3.89057e-06
-3.88917e-06
-3.89336e-06
-3.89421e-06
-3.89423e-06
-3.89335e-06
-3.88919e-06
-3.94576e-06
-3.92523e-06
-3.91035e-06
-3.8877e-06
-3.88918e-06
-3.89337e-06
-3.89424e-06
-3.89423e-06
-3.89334e-06
-3.88918e-06
-3.94659e-06
-3.91075e-06
-3.89257e-06
-3.88878e-06
-3.89247e-06
-3.89334e-06
-3.89336e-06
-3.89246e-06
-3.88879e-06
-3.94313e-06
-3.93663e-06
-3.91621e-06
-3.91092e-06
-3.88875e-06
-3.88914e-06
-3.88917e-06
-3.88878e-06
-3.95886e-06
-3.92537e-06
-3.92113e-06
-3.91233e-06
-3.90952e-06
-3.93532e-06
-3.94575e-06
-3.94663e-06
-3.9432e-06
-3.92543e-06
-3.9377e-06
-3.92668e-06
-3.92523e-06
-3.91071e-06
-3.93659e-06
-3.92104e-06
-3.86606e-06
-3.86705e-06
-3.86121e-06
-3.84976e-06
-3.84667e-06
-3.84395e-06
-3.84924e-06
-3.87312e-06
-3.86955e-06
-3.86142e-06
-3.82982e-06
-3.84544e-06
-3.84555e-06
-3.84556e-06
-3.84544e-06
-3.86791e-06
-3.86668e-06
-3.84972e-06
-3.84543e-06
-3.84677e-06
-3.84699e-06
-3.847e-06
-3.84677e-06
-3.84544e-06
-3.89189e-06
-3.88358e-06
-3.866e-06
-3.8469e-06
-3.84555e-06
-3.847e-06
-3.84726e-06
-3.84727e-06
-3.84699e-06
-3.84555e-06
-3.90201e-06
-3.88187e-06
-3.86701e-06
-3.84395e-06
-3.84555e-06
-3.847e-06
-3.84727e-06
-3.84727e-06
-3.84699e-06
-3.84555e-06
-3.90283e-06
-3.86731e-06
-3.84923e-06
-3.84544e-06
-3.84677e-06
-3.84699e-06
-3.84701e-06
-3.84677e-06
-3.84544e-06
-3.89931e-06
-3.89339e-06
-3.87311e-06
-3.86791e-06
-3.84543e-06
-3.84554e-06
-3.84555e-06
-3.84544e-06
-3.9161e-06
-3.88215e-06
-3.87799e-06
-3.86958e-06
-3.86668e-06
-3.89188e-06
-3.90206e-06
-3.90282e-06
-3.8993e-06
-3.88223e-06
-3.89507e-06
-3.88351e-06
-3.88186e-06
-3.86731e-06
-3.89339e-06
-3.87806e-06
-3.82241e-06
-3.82339e-06
-3.81766e-06
-3.80606e-06
-3.80289e-06
-3.79998e-06
-3.80549e-06
-3.82954e-06
-3.82607e-06
-3.81769e-06
-3.78591e-06
-3.80169e-06
-3.80172e-06
-3.80172e-06
-3.8017e-06
-3.82431e-06
-3.82319e-06
-3.80604e-06
-3.8017e-06
-3.8022e-06
-3.80229e-06
-3.8023e-06
-3.80221e-06
-3.80171e-06
-3.8482e-06
-3.83997e-06
-3.82233e-06
-3.80316e-06
-3.80173e-06
-3.8023e-06
-3.80237e-06
-3.80237e-06
-3.8023e-06
-3.80173e-06
-3.85819e-06
-3.83818e-06
-3.82334e-06
-3.79999e-06
-3.80172e-06
-3.80229e-06
-3.80238e-06
-3.80237e-06
-3.8023e-06
-3.80173e-06
-3.85898e-06
-3.82363e-06
-3.80548e-06
-3.8017e-06
-3.80221e-06
-3.8023e-06
-3.8023e-06
-3.80221e-06
-3.80171e-06
-3.85549e-06
-3.84976e-06
-3.82946e-06
-3.82431e-06
-3.8017e-06
-3.80173e-06
-3.80174e-06
-3.80171e-06
-3.87268e-06
-3.83856e-06
-3.83449e-06
-3.82627e-06
-3.82318e-06
-3.84819e-06
-3.85826e-06
-3.85895e-06
-3.85546e-06
-3.83861e-06
-3.8516e-06
-3.83994e-06
-3.83816e-06
-3.82362e-06
-3.84974e-06
-3.83447e-06
-3.7786e-06
-3.77957e-06
-3.7739e-06
-3.76224e-06
-3.7591e-06
-3.75613e-06
-3.76169e-06
-3.78576e-06
-3.7823e-06
-3.77392e-06
-3.74201e-06
-3.75787e-06
-3.75786e-06
-3.75787e-06
-3.75787e-06
-3.78051e-06
-3.77944e-06
-3.76222e-06
-3.75786e-06
-3.75805e-06
-3.75808e-06
-3.75808e-06
-3.75805e-06
-3.75785e-06
-3.8044e-06
-3.79616e-06
-3.77856e-06
-3.75912e-06
-3.75785e-06
-3.75808e-06
-3.75812e-06
-3.75812e-06
-3.75809e-06
-3.75787e-06
-3.81441e-06
-3.79438e-06
-3.77955e-06
-3.75611e-06
-3.75786e-06
-3.75809e-06
-3.75812e-06
-3.75812e-06
-3.75809e-06
-3.75787e-06
-3.81506e-06
-3.77981e-06
-3.76168e-06
-3.75785e-06
-3.75805e-06
-3.75808e-06
-3.75808e-06
-3.75805e-06
-3.75786e-06
-3.81159e-06
-3.80599e-06
-3.78568e-06
-3.78052e-06
-3.75786e-06
-3.75786e-06
-3.75787e-06
-3.75787e-06
-3.829e-06
-3.79478e-06
-3.79072e-06
-3.78256e-06
-3.77945e-06
-3.8044e-06
-3.81436e-06
-3.81511e-06
-3.81166e-06
-3.79484e-06
-3.80787e-06
-3.79619e-06
-3.79439e-06
-3.77982e-06
-3.80599e-06
-3.7907e-06
-3.73474e-06
-3.73572e-06
-3.73005e-06
-3.71838e-06
-3.71521e-06
-3.71222e-06
-3.71783e-06
-3.74191e-06
-3.73845e-06
-3.73008e-06
-3.69809e-06
-3.71398e-06
-3.714e-06
-3.714e-06
-3.71399e-06
-3.73665e-06
-3.73561e-06
-3.71836e-06
-3.714e-06
-3.71406e-06
-3.71407e-06
-3.71407e-06
-3.71405e-06
-3.71399e-06
-3.76052e-06
-3.75234e-06
-3.73472e-06
-3.71523e-06
-3.714e-06
-3.71407e-06
-3.71409e-06
-3.71409e-06
-3.71406e-06
-3.71399e-06
-3.7704e-06
-3.75051e-06
-3.73571e-06
-3.71221e-06
-3.714e-06
-3.71407e-06
-3.71409e-06
-3.71409e-06
-3.71407e-06
-3.71399e-06
-3.77113e-06
-3.73597e-06
-3.71782e-06
-3.71399e-06
-3.71405e-06
-3.71407e-06
-3.71407e-06
-3.71405e-06
-3.71399e-06
-3.76768e-06
-3.76214e-06
-3.74184e-06
-3.73666e-06
-3.71399e-06
-3.714e-06
-3.71399e-06
-3.71399e-06
-3.78521e-06
-3.75096e-06
-3.74689e-06
-3.73872e-06
-3.73562e-06
-3.76053e-06
-3.77044e-06
-3.77119e-06
-3.76775e-06
-3.75101e-06
-3.76404e-06
-3.75236e-06
-3.75052e-06
-3.73595e-06
-3.76213e-06
-3.74688e-06
-3.69087e-06
-3.69185e-06
-3.68619e-06
-3.6745e-06
-3.67133e-06
-3.66833e-06
-3.67396e-06
-3.69805e-06
-3.6946e-06
-3.68623e-06
-3.6542e-06
-3.67011e-06
-3.67011e-06
-3.67011e-06
-3.67011e-06
-3.69279e-06
-3.69176e-06
-3.6745e-06
-3.6701e-06
-3.67015e-06
-3.67016e-06
-3.67015e-06
-3.67015e-06
-3.67011e-06
-3.71667e-06
-3.70849e-06
-3.69086e-06
-3.67136e-06
-3.67011e-06
-3.67016e-06
-3.67016e-06
-3.67016e-06
-3.67015e-06
-3.67012e-06
-3.72654e-06
-3.70666e-06
-3.69184e-06
-3.66833e-06
-3.67011e-06
-3.67015e-06
-3.67016e-06
-3.67016e-06
-3.67015e-06
-3.67011e-06
-3.72726e-06
-3.69212e-06
-3.67395e-06
-3.67011e-06
-3.67015e-06
-3.67016e-06
-3.67016e-06
-3.67015e-06
-3.67011e-06
-3.72382e-06
-3.71827e-06
-3.69797e-06
-3.6928e-06
-3.6701e-06
-3.67011e-06
-3.67011e-06
-3.6701e-06
-3.74136e-06
-3.70709e-06
-3.70302e-06
-3.69487e-06
-3.69176e-06
-3.71668e-06
-3.72657e-06
-3.72732e-06
-3.72389e-06
-3.70715e-06
-3.7202e-06
-3.7085e-06
-3.70666e-06
-3.69209e-06
-3.71827e-06
-3.70302e-06
-3.647e-06
-3.64798e-06
-3.64232e-06
-3.63063e-06
-3.62745e-06
-3.62444e-06
-3.63009e-06
-3.65419e-06
-3.65074e-06
-3.64236e-06
-3.61032e-06
-3.62624e-06
-3.62624e-06
-3.62624e-06
-3.62624e-06
-3.64893e-06
-3.6479e-06
-3.63062e-06
-3.62624e-06
-3.62625e-06
-3.62625e-06
-3.62625e-06
-3.62625e-06
-3.62624e-06
-3.6728e-06
-3.66463e-06
-3.64699e-06
-3.62748e-06
-3.62624e-06
-3.62625e-06
-3.62626e-06
-3.62625e-06
-3.62625e-06
-3.62624e-06
-3.68267e-06
-3.66279e-06
-3.64798e-06
-3.62444e-06
-3.62624e-06
-3.62625e-06
-3.62626e-06
-3.62625e-06
-3.62625e-06
-3.62624e-06
-3.68339e-06
-3.64826e-06
-3.63007e-06
-3.62623e-06
-3.62624e-06
-3.62625e-06
-3.62625e-06
-3.62624e-06
-3.62623e-06
-3.67994e-06
-3.67441e-06
-3.6541e-06
-3.64893e-06
-3.62624e-06
-3.62624e-06
-3.62624e-06
-3.62624e-06
-3.69751e-06
-3.66323e-06
-3.65916e-06
-3.65101e-06
-3.6479e-06
-3.6728e-06
-3.6827e-06
-3.68345e-06
-3.68002e-06
-3.66329e-06
-3.67634e-06
-3.66463e-06
-3.6628e-06
-3.64823e-06
-3.67441e-06
-3.65915e-06
-3.60313e-06
-3.6041e-06
-3.59845e-06
-3.58676e-06
-3.58357e-06
-3.58056e-06
-3.58621e-06
-3.6103e-06
-3.60686e-06
-3.59848e-06
-3.56644e-06
-3.58236e-06
-3.58236e-06
-3.58236e-06
-3.58236e-06
-3.60504e-06
-3.60402e-06
-3.58674e-06
-3.58236e-06
-3.58236e-06
-3.58236e-06
-3.58236e-06
-3.58236e-06
-3.58236e-06
-3.62891e-06
-3.62075e-06
-3.60311e-06
-3.58359e-06
-3.58236e-06
-3.58236e-06
-3.58236e-06
-3.58236e-06
-3.58236e-06
-3.58236e-06
-3.63878e-06
-3.61891e-06
-3.6041e-06
-3.58056e-06
-3.58236e-06
-3.58236e-06
-3.58236e-06
-3.58236e-06
-3.58236e-06
-3.58236e-06
-3.6395e-06
-3.60438e-06
-3.5862e-06
-3.58236e-06
-3.58236e-06
-3.58236e-06
-3.58236e-06
-3.58236e-06
-3.58236e-06
-3.63606e-06
-3.63053e-06
-3.61022e-06
-3.60505e-06
-3.58236e-06
-3.58236e-06
-3.58236e-06
-3.58236e-06
-3.65362e-06
-3.61935e-06
-3.61528e-06
-3.60712e-06
-3.60402e-06
-3.62892e-06
-3.63881e-06
-3.63956e-06
-3.63614e-06
-3.6194e-06
-3.63246e-06
-3.62075e-06
-3.61892e-06
-3.60435e-06
-3.63053e-06
-3.61528e-06
-3.55924e-06
-3.56022e-06
-3.55483e-06
-3.54286e-06
-3.53969e-06
-3.53668e-06
-3.54233e-06
-3.56642e-06
-3.56297e-06
-3.55462e-06
-3.52256e-06
-3.53848e-06
-3.53848e-06
-3.53848e-06
-3.53848e-06
-3.56116e-06
-3.56014e-06
-3.54287e-06
-3.53848e-06
-3.53848e-06
-3.53848e-06
-3.53848e-06
-3.53848e-06
-3.53848e-06
-3.58504e-06
-3.57687e-06
-3.55923e-06
-3.53972e-06
-3.53848e-06
-3.53848e-06
-3.53848e-06
-3.53848e-06
-3.53848e-06
-3.53848e-06
-3.5949e-06
-3.57503e-06
-3.56022e-06
-3.53668e-06
-3.53848e-06
-3.53848e-06
-3.53848e-06
-3.53848e-06
-3.53848e-06
-3.53848e-06
-3.59562e-06
-3.5605e-06
-3.54232e-06
-3.53848e-06
-3.53848e-06
-3.53848e-06
-3.53848e-06
-3.53848e-06
-3.53848e-06
-3.59218e-06
-3.58665e-06
-3.56635e-06
-3.56117e-06
-3.53848e-06
-3.53848e-06
-3.53848e-06
-3.53848e-06
-3.60975e-06
-3.57548e-06
-3.5714e-06
-3.56325e-06
-3.56014e-06
-3.58505e-06
-3.59494e-06
-3.59568e-06
-3.59226e-06
-3.57553e-06
-3.58859e-06
-3.57688e-06
-3.57504e-06
-3.56047e-06
-3.58666e-06
-3.5714e-06
-3.51536e-06
-3.51634e-06
-3.51084e-06
-3.49898e-06
-3.49581e-06
-3.4928e-06
-3.49845e-06
-3.52254e-06
-3.51908e-06
-3.51073e-06
-3.47867e-06
-3.49459e-06
-3.49459e-06
-3.49459e-06
-3.4946e-06
-3.51728e-06
-3.51625e-06
-3.49898e-06
-3.49459e-06
-3.4946e-06
-3.4946e-06
-3.4946e-06
-3.4946e-06
-3.49459e-06
-3.54116e-06
-3.53299e-06
-3.51535e-06
-3.49583e-06
-3.49459e-06
-3.4946e-06
-3.4946e-06
-3.4946e-06
-3.4946e-06
-3.49459e-06
-3.55102e-06
-3.53115e-06
-3.51633e-06
-3.4928e-06
-3.49459e-06
-3.4946e-06
-3.4946e-06
-3.4946e-06
-3.4946e-06
-3.49459e-06
-3.55174e-06
-3.51662e-06
-3.49844e-06
-3.49459e-06
-3.4946e-06
-3.49459e-06
-3.4946e-06
-3.4946e-06
-3.49459e-06
-3.5483e-06
-3.54277e-06
-3.52247e-06
-3.51729e-06
-3.49459e-06
-3.49459e-06
-3.49459e-06
-3.49459e-06
-3.56587e-06
-3.53159e-06
-3.52752e-06
-3.51936e-06
-3.51626e-06
-3.54117e-06
-3.55106e-06
-3.55181e-06
-3.54838e-06
-3.53165e-06
-3.5447e-06
-3.53299e-06
-3.53115e-06
-3.51659e-06
-3.54277e-06
-3.52752e-06
-3.47148e-06
-3.47245e-06
-3.46705e-06
-3.45509e-06
-3.45192e-06
-3.44892e-06
-3.45456e-06
-3.47866e-06
-3.47519e-06
-3.46685e-06
-3.43479e-06
-3.45071e-06
-3.45071e-06
-3.45071e-06
-3.45071e-06
-3.47339e-06
-3.47237e-06
-3.4551e-06
-3.45071e-06
-3.45071e-06
-3.45071e-06
-3.45071e-06
-3.45071e-06
-3.45071e-06
-3.49727e-06
-3.4891e-06
-3.47147e-06
-3.45195e-06
-3.45071e-06
-3.45071e-06
-3.45071e-06
-3.45071e-06
-3.45071e-06
-3.45071e-06
-3.50713e-06
-3.48727e-06
-3.47245e-06
-3.44891e-06
-3.45071e-06
-3.45071e-06
-3.45071e-06
-3.45071e-06
-3.45071e-06
-3.45071e-06
-3.50785e-06
-3.47274e-06
-3.45455e-06
-3.45071e-06
-3.45071e-06
-3.45071e-06
-3.45071e-06
-3.45071e-06
-3.45071e-06
-3.50441e-06
-3.49889e-06
-3.47858e-06
-3.47341e-06
-3.45071e-06
-3.45071e-06
-3.45071e-06
-3.45071e-06
-3.52198e-06
-3.48771e-06
-3.48364e-06
-3.47548e-06
-3.47238e-06
-3.49728e-06
-3.50717e-06
-3.50792e-06
-3.5045e-06
-3.48776e-06
-3.50082e-06
-3.48911e-06
-3.48727e-06
-3.47271e-06
-3.49889e-06
-3.48364e-06
-3.42759e-06
-3.42857e-06
-3.42317e-06
-3.41121e-06
-3.40804e-06
-3.40503e-06
-3.41068e-06
-3.43479e-06
-3.43127e-06
-3.42297e-06
-3.39091e-06
-3.40683e-06
-3.40683e-06
-3.40683e-06
-3.40683e-06
-3.42951e-06
-3.42848e-06
-3.41122e-06
-3.40683e-06
-3.40683e-06
-3.40683e-06
-3.40683e-06
-3.40683e-06
-3.40683e-06
-3.45339e-06
-3.44522e-06
-3.42758e-06
-3.40807e-06
-3.40683e-06
-3.40683e-06
-3.40683e-06
-3.40683e-06
-3.40683e-06
-3.40683e-06
-3.46325e-06
-3.44338e-06
-3.42857e-06
-3.40503e-06
-3.40683e-06
-3.40683e-06
-3.40683e-06
-3.40683e-06
-3.40683e-06
-3.40683e-06
-3.46397e-06
-3.42885e-06
-3.41067e-06
-3.40683e-06
-3.40683e-06
-3.40683e-06
-3.40683e-06
-3.40683e-06
-3.40683e-06
-3.46053e-06
-3.455e-06
-3.4347e-06
-3.42953e-06
-3.40683e-06
-3.40683e-06
-3.40683e-06
-3.40683e-06
-3.4781e-06
-3.44383e-06
-3.43975e-06
-3.4316e-06
-3.42849e-06
-3.4534e-06
-3.46328e-06
-3.46404e-06
-3.46062e-06
-3.44388e-06
-3.45694e-06
-3.44523e-06
-3.44339e-06
-3.42882e-06
-3.45501e-06
-3.43975e-06
-3.38371e-06
-3.38469e-06
-3.37928e-06
-3.36733e-06
-3.36416e-06
-3.36115e-06
-3.3668e-06
-3.39089e-06
-3.38743e-06
-3.37908e-06
-3.34703e-06
-3.36295e-06
-3.36295e-06
-3.36295e-06
-3.36295e-06
-3.38562e-06
-3.3846e-06
-3.36733e-06
-3.36294e-06
-3.36295e-06
-3.36295e-06
-3.36295e-06
-3.36295e-06
-3.36294e-06
-3.4095e-06
-3.40134e-06
-3.3837e-06
-3.36418e-06
-3.36295e-06
-3.36295e-06
-3.36295e-06
-3.36295e-06
-3.36295e-06
-3.36295e-06
-3.41937e-06
-3.3995e-06
-3.38468e-06
-3.36115e-06
-3.36295e-06
-3.36294e-06
-3.36295e-06
-3.36295e-06
-3.36295e-06
-3.36295e-06
-3.42008e-06
-3.38497e-06
-3.36679e-06
-3.36295e-06
-3.36294e-06
-3.36294e-06
-3.36294e-06
-3.36295e-06
-3.36295e-06
-3.41665e-06
-3.41112e-06
-3.39082e-06
-3.38564e-06
-3.36295e-06
-3.36295e-06
-3.36294e-06
-3.36295e-06
-3.43422e-06
-3.39994e-06
-3.39587e-06
-3.38771e-06
-3.38461e-06
-3.40951e-06
-3.4194e-06
-3.42015e-06
-3.41673e-06
-3.4e-06
-3.41305e-06
-3.40134e-06
-3.39951e-06
-3.38494e-06
-3.41112e-06
-3.39587e-06
-3.33983e-06
-3.3408e-06
-3.3354e-06
-3.32344e-06
-3.32028e-06
-3.31727e-06
-3.32292e-06
-3.34701e-06
-3.34354e-06
-3.3352e-06
-3.30314e-06
-3.31906e-06
-3.31906e-06
-3.31906e-06
-3.31906e-06
-3.34174e-06
-3.34072e-06
-3.32345e-06
-3.31906e-06
-3.31906e-06
-3.31906e-06
-3.31906e-06
-3.31906e-06
-3.31906e-06
-3.36562e-06
-3.35745e-06
-3.33982e-06
-3.3203e-06
-3.31906e-06
-3.31906e-06
-3.31906e-06
-3.31906e-06
-3.31906e-06
-3.31906e-06
-3.37548e-06
-3.35562e-06
-3.3408e-06
-3.31726e-06
-3.31906e-06
-3.31906e-06
-3.31906e-06
-3.31906e-06
-3.31906e-06
-3.31906e-06
-3.3762e-06
-3.34109e-06
-3.3229e-06
-3.31906e-06
-3.31906e-06
-3.31906e-06
-3.31906e-06
-3.31906e-06
-3.31906e-06
-3.37276e-06
-3.36724e-06
-3.34693e-06
-3.34176e-06
-3.31906e-06
-3.31906e-06
-3.31906e-06
-3.31906e-06
-3.39034e-06
-3.35606e-06
-3.35199e-06
-3.34383e-06
-3.34073e-06
-3.36563e-06
-3.37552e-06
-3.37628e-06
-3.37285e-06
-3.35612e-06
-3.36917e-06
-3.35746e-06
-3.35562e-06
-3.34106e-06
-3.36724e-06
-3.35199e-06
-3.29595e-06
-3.29693e-06
-3.29152e-06
-3.27957e-06
-3.2764e-06
-3.27339e-06
-3.27904e-06
-3.30313e-06
-3.29967e-06
-3.29132e-06
-3.25927e-06
-3.27519e-06
-3.27519e-06
-3.27519e-06
-3.27519e-06
-3.29786e-06
-3.29684e-06
-3.27957e-06
-3.27519e-06
-3.27519e-06
-3.27519e-06
-3.27519e-06
-3.27519e-06
-3.27519e-06
-3.32175e-06
-3.31357e-06
-3.29594e-06
-3.27642e-06
-3.27519e-06
-3.27519e-06
-3.27519e-06
-3.27519e-06
-3.27519e-06
-3.27519e-06
-3.3316e-06
-3.31174e-06
-3.29692e-06
-3.27339e-06
-3.27519e-06
-3.27519e-06
-3.27519e-06
-3.27519e-06
-3.27519e-06
-3.27519e-06
-3.33232e-06
-3.29721e-06
-3.27903e-06
-3.27519e-06
-3.27519e-06
-3.27519e-06
-3.27519e-06
-3.27519e-06
-3.27519e-06
-3.32889e-06
-3.32336e-06
-3.30305e-06
-3.29788e-06
-3.27519e-06
-3.27519e-06
-3.27519e-06
-3.27519e-06
-3.34646e-06
-3.31218e-06
-3.30811e-06
-3.29995e-06
-3.29685e-06
-3.32175e-06
-3.33164e-06
-3.3324e-06
-3.32897e-06
-3.31224e-06
-3.32529e-06
-3.31358e-06
-3.31175e-06
-3.29719e-06
-3.32336e-06
-3.30811e-06
-3.25207e-06
-3.25305e-06
-3.24765e-06
-3.23569e-06
-3.23252e-06
-3.22951e-06
-3.23516e-06
-3.25925e-06
-3.2558e-06
-3.24745e-06
-3.21539e-06
-3.23131e-06
-3.23131e-06
-3.23131e-06
-3.23131e-06
-3.25399e-06
-3.25297e-06
-3.2357e-06
-3.23131e-06
-3.23131e-06
-3.23131e-06
-3.23131e-06
-3.23131e-06
-3.23131e-06
-3.27787e-06
-3.2697e-06
-3.25206e-06
-3.23255e-06
-3.23131e-06
-3.23131e-06
-3.23131e-06
-3.23131e-06
-3.23131e-06
-3.23131e-06
-3.28773e-06
-3.26786e-06
-3.25305e-06
-3.22951e-06
-3.23131e-06
-3.23131e-06
-3.23131e-06
-3.23131e-06
-3.23131e-06
-3.23131e-06
-3.28845e-06
-3.25333e-06
-3.23515e-06
-3.23131e-06
-3.23131e-06
-3.23131e-06
-3.23131e-06
-3.23131e-06
-3.23131e-06
-3.28501e-06
-3.27948e-06
-3.25918e-06
-3.25401e-06
-3.23131e-06
-3.23131e-06
-3.23131e-06
-3.23131e-06
-3.30258e-06
-3.26831e-06
-3.26423e-06
-3.25607e-06
-3.25297e-06
-3.27788e-06
-3.28776e-06
-3.28852e-06
-3.28509e-06
-3.26836e-06
-3.28142e-06
-3.26971e-06
-3.26787e-06
-3.25332e-06
-3.27949e-06
-3.26423e-06
-3.20819e-06
-3.20917e-06
-3.20377e-06
-3.19181e-06
-3.18864e-06
-3.18563e-06
-3.19128e-06
-3.21538e-06
-3.21192e-06
-3.20357e-06
-3.17151e-06
-3.18743e-06
-3.18743e-06
-3.18743e-06
-3.18743e-06
-3.21011e-06
-3.20909e-06
-3.19182e-06
-3.18743e-06
-3.18743e-06
-3.18743e-06
-3.18743e-06
-3.18743e-06
-3.18743e-06
-3.23399e-06
-3.22582e-06
-3.20819e-06
-3.18867e-06
-3.18743e-06
-3.18743e-06
-3.18743e-06
-3.18743e-06
-3.18743e-06
-3.18743e-06
-3.24385e-06
-3.22399e-06
-3.20917e-06
-3.18563e-06
-3.18743e-06
-3.18743e-06
-3.18743e-06
-3.18743e-06
-3.18743e-06
-3.18743e-06
-3.24457e-06
-3.20945e-06
-3.19127e-06
-3.18743e-06
-3.18743e-06
-3.18743e-06
-3.18743e-06
-3.18743e-06
-3.18743e-06
-3.24113e-06
-3.23561e-06
-3.2153e-06
-3.21013e-06
-3.18743e-06
-3.18743e-06
-3.18743e-06
-3.18743e-06
-3.2587e-06
-3.22443e-06
-3.22035e-06
-3.2122e-06
-3.20909e-06
-3.234e-06
-3.24388e-06
-3.24464e-06
-3.24122e-06
-3.22448e-06
-3.23754e-06
-3.22583e-06
-3.224e-06
-3.20943e-06
-3.23561e-06
-3.22035e-06
-3.16432e-06
-3.16529e-06
-3.15989e-06
-3.14793e-06
-3.14476e-06
-3.14175e-06
-3.14741e-06
-3.1715e-06
-3.16805e-06
-3.15969e-06
-3.12764e-06
-3.14356e-06
-3.14356e-06
-3.14356e-06
-3.14356e-06
-3.16624e-06
-3.16521e-06
-3.14794e-06
-3.14355e-06
-3.14355e-06
-3.14355e-06
-3.14355e-06
-3.14355e-06
-3.14356e-06
-3.19012e-06
-3.18194e-06
-3.16431e-06
-3.14479e-06
-3.14355e-06
-3.14355e-06
-3.14355e-06
-3.14355e-06
-3.14355e-06
-3.14355e-06
-3.19997e-06
-3.18011e-06
-3.16529e-06
-3.14175e-06
-3.14355e-06
-3.14355e-06
-3.14355e-06
-3.14355e-06
-3.14355e-06
-3.14355e-06
-3.20069e-06
-3.16558e-06
-3.14739e-06
-3.14355e-06
-3.14355e-06
-3.14355e-06
-3.14355e-06
-3.14355e-06
-3.14355e-06
-3.19725e-06
-3.19173e-06
-3.17142e-06
-3.16625e-06
-3.14355e-06
-3.14355e-06
-3.14355e-06
-3.14355e-06
-3.21482e-06
-3.18055e-06
-3.17648e-06
-3.16832e-06
-3.16522e-06
-3.19012e-06
-3.19999e-06
-3.20071e-06
-3.19729e-06
-3.1806e-06
-3.19366e-06
-3.18195e-06
-3.18011e-06
-3.16555e-06
-3.19172e-06
-3.17647e-06
-3.12044e-06
-3.12142e-06
-3.11602e-06
-3.10406e-06
-3.10089e-06
-3.09788e-06
-3.10353e-06
-3.12762e-06
-3.12417e-06
-3.11582e-06
-3.08376e-06
-3.09968e-06
-3.09968e-06
-3.09968e-06
-3.09968e-06
-3.12236e-06
-3.12134e-06
-3.10406e-06
-3.09968e-06
-3.09968e-06
-3.09968e-06
-3.09968e-06
-3.09968e-06
-3.09968e-06
-3.14624e-06
-3.13807e-06
-3.12043e-06
-3.10091e-06
-3.09968e-06
-3.09968e-06
-3.09968e-06
-3.09968e-06
-3.09968e-06
-3.09968e-06
-3.1561e-06
-3.13623e-06
-3.12142e-06
-3.09788e-06
-3.09968e-06
-3.09968e-06
-3.09968e-06
-3.09968e-06
-3.09968e-06
-3.09968e-06
-3.15682e-06
-3.1217e-06
-3.10352e-06
-3.09968e-06
-3.09968e-06
-3.09968e-06
-3.09968e-06
-3.09968e-06
-3.09968e-06
-3.15338e-06
-3.14785e-06
-3.12755e-06
-3.12237e-06
-3.09968e-06
-3.09968e-06
-3.09968e-06
-3.09968e-06
-3.17095e-06
-3.13667e-06
-3.1326e-06
-3.12444e-06
-3.12134e-06
-3.14624e-06
-3.15612e-06
-3.15684e-06
-3.15342e-06
-3.13672e-06
-3.14978e-06
-3.13807e-06
-3.13624e-06
-3.12169e-06
-3.14785e-06
-3.13259e-06
-3.07656e-06
-3.07754e-06
-3.07214e-06
-3.06018e-06
-3.05701e-06
-3.054e-06
-3.05965e-06
-3.08374e-06
-3.08029e-06
-3.07193e-06
-3.03988e-06
-3.0558e-06
-3.0558e-06
-3.0558e-06
-3.0558e-06
-3.07848e-06
-3.07745e-06
-3.06018e-06
-3.0558e-06
-3.0558e-06
-3.0558e-06
-3.0558e-06
-3.0558e-06
-3.0558e-06
-3.10236e-06
-3.09419e-06
-3.07655e-06
-3.05703e-06
-3.0558e-06
-3.0558e-06
-3.0558e-06
-3.0558e-06
-3.0558e-06
-3.0558e-06
-3.11222e-06
-3.09235e-06
-3.07753e-06
-3.054e-06
-3.0558e-06
-3.0558e-06
-3.0558e-06
-3.0558e-06
-3.0558e-06
-3.0558e-06
-3.11293e-06
-3.07782e-06
-3.05964e-06
-3.0558e-06
-3.0558e-06
-3.0558e-06
-3.0558e-06
-3.0558e-06
-3.0558e-06
-3.1095e-06
-3.10397e-06
-3.08367e-06
-3.07849e-06
-3.0558e-06
-3.0558e-06
-3.0558e-06
-3.0558e-06
-3.12707e-06
-3.09279e-06
-3.08872e-06
-3.08056e-06
-3.07746e-06
-3.10236e-06
-3.11224e-06
-3.11296e-06
-3.10954e-06
-3.09284e-06
-3.1059e-06
-3.09419e-06
-3.09236e-06
-3.0778e-06
-3.10397e-06
-3.08871e-06
-3.03268e-06
-3.03366e-06
-3.02827e-06
-3.01629e-06
-3.01313e-06
-3.01012e-06
-3.01577e-06
-3.03987e-06
-3.03641e-06
-3.02806e-06
-2.996e-06
-3.01192e-06
-3.01192e-06
-3.01192e-06
-3.01192e-06
-3.0346e-06
-3.03357e-06
-3.0163e-06
-3.01192e-06
-3.01192e-06
-3.01192e-06
-3.01192e-06
-3.01192e-06
-3.01192e-06
-3.05848e-06
-3.0503e-06
-3.03267e-06
-3.01315e-06
-3.01192e-06
-3.01192e-06
-3.01192e-06
-3.01192e-06
-3.01192e-06
-3.01192e-06
-3.06833e-06
-3.04847e-06
-3.03365e-06
-3.01012e-06
-3.01192e-06
-3.01192e-06
-3.01192e-06
-3.01192e-06
-3.01192e-06
-3.01192e-06
-3.06905e-06
-3.03394e-06
-3.01576e-06
-3.01192e-06
-3.01192e-06
-3.01192e-06
-3.01192e-06
-3.01192e-06
-3.01192e-06
-3.06562e-06
-3.06009e-06
-3.03979e-06
-3.03461e-06
-3.01192e-06
-3.01192e-06
-3.01192e-06
-3.01192e-06
-3.08319e-06
-3.04891e-06
-3.04484e-06
-3.03668e-06
-3.03358e-06
-3.05848e-06
-3.06836e-06
-3.06908e-06
-3.06566e-06
-3.04896e-06
-3.06202e-06
-3.05031e-06
-3.04848e-06
-3.03392e-06
-3.06009e-06
-3.04483e-06
-2.9888e-06
-2.98978e-06
-2.98439e-06
-2.97242e-06
-2.96925e-06
-2.96624e-06
-2.97189e-06
-2.99598e-06
-2.99253e-06
-2.98418e-06
-2.95212e-06
-2.96804e-06
-2.96804e-06
-2.96804e-06
-2.96804e-06
-2.99072e-06
-2.9897e-06
-2.97243e-06
-2.96804e-06
-2.96804e-06
-2.96804e-06
-2.96804e-06
-2.96804e-06
-2.96804e-06
-3.0146e-06
-3.00643e-06
-2.98879e-06
-2.96928e-06
-2.96804e-06
-2.96804e-06
-2.96804e-06
-2.96804e-06
-2.96804e-06
-2.96804e-06
-3.02446e-06
-3.00459e-06
-2.98978e-06
-2.96624e-06
-2.96804e-06
-2.96804e-06
-2.96804e-06
-2.96804e-06
-2.96804e-06
-2.96804e-06
-3.02518e-06
-2.99006e-06
-2.97188e-06
-2.96804e-06
-2.96804e-06
-2.96804e-06
-2.96804e-06
-2.96804e-06
-2.96804e-06
-3.02174e-06
-3.01621e-06
-2.99591e-06
-2.99073e-06
-2.96804e-06
-2.96804e-06
-2.96804e-06
-2.96804e-06
-3.03931e-06
-3.00504e-06
-3.00096e-06
-2.99281e-06
-2.9897e-06
-3.01461e-06
-3.02448e-06
-3.0252e-06
-3.02178e-06
-3.00509e-06
-3.01814e-06
-3.00643e-06
-3.0046e-06
-2.99005e-06
-3.01621e-06
-3.00096e-06
-2.94492e-06
-2.9459e-06
-2.94052e-06
-2.92854e-06
-2.92537e-06
-2.92237e-06
-2.92802e-06
-2.95211e-06
-2.94866e-06
-2.9403e-06
-2.90825e-06
-2.92417e-06
-2.92417e-06
-2.92417e-06
-2.92417e-06
-2.94685e-06
-2.94582e-06
-2.92855e-06
-2.92417e-06
-2.92417e-06
-2.92417e-06
-2.92417e-06
-2.92417e-06
-2.92417e-06
-2.97073e-06
-2.96255e-06
-2.94492e-06
-2.9254e-06
-2.92417e-06
-2.92417e-06
-2.92417e-06
-2.92417e-06
-2.92417e-06
-2.92417e-06
-2.98059e-06
-2.96072e-06
-2.9459e-06
-2.92237e-06
-2.92417e-06
-2.92417e-06
-2.92417e-06
-2.92417e-06
-2.92417e-06
-2.92417e-06
-2.9813e-06
-2.94619e-06
-2.92801e-06
-2.92417e-06
-2.92417e-06
-2.92417e-06
-2.92417e-06
-2.92417e-06
-2.92417e-06
-2.97787e-06
-2.97234e-06
-2.95203e-06
-2.94686e-06
-2.92417e-06
-2.92417e-06
-2.92417e-06
-2.92417e-06
-2.99544e-06
-2.96116e-06
-2.95709e-06
-2.94893e-06
-2.94583e-06
-2.97073e-06
-2.98061e-06
-2.98133e-06
-2.97791e-06
-2.96121e-06
-2.97427e-06
-2.96256e-06
-2.96073e-06
-2.94617e-06
-2.97234e-06
-2.95708e-06
-2.90105e-06
-2.90203e-06
-2.89664e-06
-2.88467e-06
-2.8815e-06
-2.87849e-06
-2.88415e-06
-2.90824e-06
-2.90479e-06
-2.89643e-06
-2.86438e-06
-2.88029e-06
-2.8803e-06
-2.8803e-06
-2.8803e-06
-2.90298e-06
-2.90195e-06
-2.88468e-06
-2.8803e-06
-2.88029e-06
-2.8803e-06
-2.88029e-06
-2.8803e-06
-2.8803e-06
-2.92685e-06
-2.91868e-06
-2.90104e-06
-2.88153e-06
-2.8803e-06
-2.88029e-06
-2.8803e-06
-2.8803e-06
-2.8803e-06
-2.8803e-06
-2.93671e-06
-2.91685e-06
-2.90203e-06
-2.87849e-06
-2.8803e-06
-2.88029e-06
-2.8803e-06
-2.88029e-06
-2.8803e-06
-2.88029e-06
-2.93743e-06
-2.90232e-06
-2.88413e-06
-2.8803e-06
-2.8803e-06
-2.8803e-06
-2.8803e-06
-2.8803e-06
-2.8803e-06
-2.93399e-06
-2.92847e-06
-2.90816e-06
-2.90299e-06
-2.88029e-06
-2.8803e-06
-2.8803e-06
-2.8803e-06
-2.95156e-06
-2.91729e-06
-2.91322e-06
-2.90506e-06
-2.90196e-06
-2.92686e-06
-2.93674e-06
-2.93746e-06
-2.93404e-06
-2.91734e-06
-2.9304e-06
-2.91869e-06
-2.91685e-06
-2.9023e-06
-2.92846e-06
-2.91321e-06
-2.85718e-06
-2.85816e-06
-2.85277e-06
-2.8408e-06
-2.83763e-06
-2.83462e-06
-2.84028e-06
-2.86437e-06
-2.86091e-06
-2.85256e-06
-2.8205e-06
-2.83642e-06
-2.83642e-06
-2.83642e-06
-2.83642e-06
-2.85911e-06
-2.85808e-06
-2.84081e-06
-2.83642e-06
-2.83642e-06
-2.83642e-06
-2.83642e-06
-2.83642e-06
-2.83642e-06
-2.88298e-06
-2.87481e-06
-2.85717e-06
-2.83766e-06
-2.83642e-06
-2.83642e-06
-2.83642e-06
-2.83642e-06
-2.83642e-06
-2.83642e-06
-2.89284e-06
-2.87298e-06
-2.85816e-06
-2.83462e-06
-2.83642e-06
-2.83642e-06
-2.83642e-06
-2.83642e-06
-2.83642e-06
-2.83642e-06
-2.89356e-06
-2.85844e-06
-2.84026e-06
-2.83642e-06
-2.83642e-06
-2.83642e-06
-2.83642e-06
-2.83642e-06
-2.83642e-06
-2.89012e-06
-2.88459e-06
-2.86429e-06
-2.85912e-06
-2.83642e-06
-2.83642e-06
-2.83642e-06
-2.83642e-06
-2.90769e-06
-2.87342e-06
-2.86934e-06
-2.86119e-06
-2.85808e-06
-2.88299e-06
-2.89287e-06
-2.89359e-06
-2.89017e-06
-2.87347e-06
-2.88653e-06
-2.87481e-06
-2.87298e-06
-2.85843e-06
-2.88459e-06
-2.86934e-06
-2.81331e-06
-2.81429e-06
-2.8089e-06
-2.79693e-06
-2.79376e-06
-2.79075e-06
-2.79641e-06
-2.8205e-06
-2.81705e-06
-2.80869e-06
-2.77664e-06
-2.79255e-06
-2.79255e-06
-2.79255e-06
-2.79255e-06
-2.81524e-06
-2.81421e-06
-2.79694e-06
-2.79255e-06
-2.79255e-06
-2.79255e-06
-2.79255e-06
-2.79255e-06
-2.79255e-06
-2.83911e-06
-2.83094e-06
-2.8133e-06
-2.79379e-06
-2.79255e-06
-2.79255e-06
-2.79255e-06
-2.79255e-06
-2.79255e-06
-2.79255e-06
-2.84897e-06
-2.8291e-06
-2.81429e-06
-2.79075e-06
-2.79255e-06
-2.79255e-06
-2.79255e-06
-2.79255e-06
-2.79255e-06
-2.79255e-06
-2.84969e-06
-2.81457e-06
-2.79639e-06
-2.79255e-06
-2.79255e-06
-2.79255e-06
-2.79255e-06
-2.79255e-06
-2.79255e-06
-2.84625e-06
-2.84072e-06
-2.82042e-06
-2.81525e-06
-2.79255e-06
-2.79255e-06
-2.79255e-06
-2.79255e-06
-2.86382e-06
-2.82955e-06
-2.82547e-06
-2.81732e-06
-2.81421e-06
-2.83912e-06
-2.84899e-06
-2.84971e-06
-2.84629e-06
-2.8296e-06
-2.84266e-06
-2.83094e-06
-2.82911e-06
-2.81456e-06
-2.84072e-06
-2.82547e-06
-2.76944e-06
-2.77042e-06
-2.76503e-06
-2.75305e-06
-2.74989e-06
-2.74688e-06
-2.75253e-06
-2.77662e-06
-2.77317e-06
-2.76481e-06
-2.73276e-06
-2.74868e-06
-2.74868e-06
-2.74868e-06
-2.74868e-06
-2.77137e-06
-2.77033e-06
-2.75306e-06
-2.74868e-06
-2.74868e-06
-2.74868e-06
-2.74868e-06
-2.74868e-06
-2.74868e-06
-2.79524e-06
-2.78706e-06
-2.76943e-06
-2.74991e-06