/*--------------------------------*- C++ -*----------------------------------*\
| =========                 |                                                 |
| \\      /  F ield         | OpenFOAM: The Open Source CFD Toolbox           |
|  \\    /   O peration     | Version:  v2012                                 |
|   \\  /    A nd           | Website:  www.openfoam.com                      |
|    \\/     M anipulation  |                                                 |
\*---------------------------------------------------------------------------*/
FoamFile
{
    version     2.0;
    format      ascii;
    class       volScalarField;
    location    "0.12";
    object      p;
}
// * * * * * * * * * * * * * * * * * * * * * * * * * * * * * * * * * * * * * //

dimensions      [0 2 -2 0 0 0 0];


internalField   nonuniform List<scalar> 
189320
(
-1.90871e-06
-1.89882e-06
-1.91605e-06
-1.91928e-06
-1.93096e-06
-1.93443e-06
-1.92649e-06
-1.92403e-06
-1.92059e-06
-1.91604e-06
-1.93204e-06
-1.93326e-06
-1.93759e-06
-1.93848e-06
-1.93559e-06
-1.93264e-06
-1.92219e-06
-1.91926e-06
-1.93326e-06
-1.93951e-06
-1.94235e-06
-1.9429e-06
-1.94115e-06
-1.9364e-06
-1.93201e-06
-1.92068e-06
-1.90897e-06
-1.93097e-06
-1.93758e-06
-1.94235e-06
-1.94409e-06
-1.94437e-06
-1.94345e-06
-1.94047e-06
-1.93321e-06
-1.92269e-06
-1.89902e-06
-1.93448e-06
-1.93848e-06
-1.94289e-06
-1.94436e-06
-1.94461e-06
-1.94387e-06
-1.94133e-06
-1.93473e-06
-1.92267e-06
-1.92652e-06
-1.93559e-06
-1.94114e-06
-1.94344e-06
-1.94386e-06
-1.94254e-06
-1.9388e-06
-1.93237e-06
-1.90931e-06
-1.92406e-06
-1.93263e-06
-1.93638e-06
-1.94045e-06
-1.94131e-06
-1.93879e-06
-1.93322e-06
-1.93108e-06
-1.92033e-06
-1.92059e-06
-1.92216e-06
-1.93197e-06
-1.93316e-06
-1.93468e-06
-1.93235e-06
-1.93106e-06
-1.9297e-06
-1.92063e-06
-1.92262e-06
-1.92247e-06
-1.90923e-06
-1.92028e-06
-1.92903e-06
-1.92971e-06
-1.92534e-06
-1.92046e-06
-1.92e-06
-1.91759e-06
-1.92008e-06
-1.93276e-06
-1.93041e-06
-1.92536e-06
-1.9092e-06
-1.92309e-06
-1.92715e-06
-1.92717e-06
-1.92314e-06
-1.92911e-06
-1.93254e-06
-1.92048e-06
-1.92312e-06
-1.93651e-06
-1.93687e-06
-1.93689e-06
-1.93652e-06
-1.92309e-06
-1.94752e-06
-1.94043e-06
-1.92912e-06
-1.92002e-06
-1.92716e-06
-1.93689e-06
-1.93663e-06
-1.93664e-06
-1.93688e-06
-1.9272e-06
-1.94869e-06
-1.94075e-06
-1.92974e-06
-1.91759e-06
-1.92715e-06
-1.93689e-06
-1.93663e-06
-1.93663e-06
-1.93687e-06
-1.92718e-06
-1.94931e-06
-1.93396e-06
-1.92007e-06
-1.92313e-06
-1.9365e-06
-1.93687e-06
-1.93689e-06
-1.9365e-06
-1.9231e-06
-1.94931e-06
-1.94635e-06
-1.93272e-06
-1.92908e-06
-1.92306e-06
-1.92713e-06
-1.92716e-06
-1.9231e-06
-1.96737e-06
-1.94281e-06
-1.93633e-06
-1.93036e-06
-1.9325e-06
-1.94747e-06
-1.94866e-06
-1.94929e-06
-1.94933e-06
-1.94285e-06
-1.94798e-06
-1.94035e-06
-1.94063e-06
-1.93392e-06
-1.94633e-06
-1.93631e-06
-1.91208e-06
-1.91286e-06
-1.90763e-06
-1.90204e-06
-1.90043e-06
-1.89857e-06
-1.9018e-06
-1.91509e-06
-1.91297e-06
-1.90764e-06
-1.89012e-06
-1.90296e-06
-1.90374e-06
-1.90376e-06
-1.90297e-06
-1.91202e-06
-1.91308e-06
-1.90204e-06
-1.90296e-06
-1.90895e-06
-1.90953e-06
-1.90957e-06
-1.90895e-06
-1.90296e-06
-1.92974e-06
-1.92383e-06
-1.91208e-06
-1.90043e-06
-1.90374e-06
-1.90956e-06
-1.90989e-06
-1.90991e-06
-1.90955e-06
-1.90377e-06
-1.9364e-06
-1.92343e-06
-1.91285e-06
-1.89857e-06
-1.90373e-06
-1.90956e-06
-1.9099e-06
-1.90991e-06
-1.90954e-06
-1.90376e-06
-1.93717e-06
-1.91567e-06
-1.9018e-06
-1.90296e-06
-1.90895e-06
-1.90954e-06
-1.90957e-06
-1.90894e-06
-1.90296e-06
-1.93518e-06
-1.93108e-06
-1.91506e-06
-1.91201e-06
-1.90293e-06
-1.90373e-06
-1.90375e-06
-1.90295e-06
-1.94506e-06
-1.92409e-06
-1.92001e-06
-1.91294e-06
-1.91306e-06
-1.92972e-06
-1.93637e-06
-1.93714e-06
-1.93516e-06
-1.92411e-06
-1.93086e-06
-1.92379e-06
-1.92341e-06
-1.91564e-06
-1.93105e-06
-1.92e-06
-1.89151e-06
-1.89224e-06
-1.8876e-06
-1.88145e-06
-1.87953e-06
-1.8776e-06
-1.88122e-06
-1.89483e-06
-1.89306e-06
-1.8876e-06
-1.86908e-06
-1.88227e-06
-1.88243e-06
-1.88243e-06
-1.88227e-06
-1.89222e-06
-1.89307e-06
-1.88143e-06
-1.88227e-06
-1.8843e-06
-1.88462e-06
-1.88464e-06
-1.8843e-06
-1.88226e-06
-1.90928e-06
-1.90351e-06
-1.8915e-06
-1.87953e-06
-1.88242e-06
-1.88463e-06
-1.88493e-06
-1.88494e-06
-1.88464e-06
-1.88244e-06
-1.91602e-06
-1.90283e-06
-1.89222e-06
-1.8776e-06
-1.88242e-06
-1.88464e-06
-1.88494e-06
-1.88494e-06
-1.88463e-06
-1.88243e-06
-1.9165e-06
-1.89484e-06
-1.88122e-06
-1.88226e-06
-1.8843e-06
-1.88463e-06
-1.88464e-06
-1.8843e-06
-1.88227e-06
-1.91443e-06
-1.91065e-06
-1.89483e-06
-1.89221e-06
-1.88225e-06
-1.88241e-06
-1.88242e-06
-1.88226e-06
-1.92556e-06
-1.90355e-06
-1.89989e-06
-1.89303e-06
-1.89306e-06
-1.90926e-06
-1.916e-06
-1.91649e-06
-1.91445e-06
-1.90358e-06
-1.91111e-06
-1.9035e-06
-1.90282e-06
-1.89482e-06
-1.91065e-06
-1.89989e-06
-1.87038e-06
-1.8711e-06
-1.86664e-06
-1.86027e-06
-1.85825e-06
-1.85625e-06
-1.86006e-06
-1.8738e-06
-1.87211e-06
-1.86664e-06
-1.84768e-06
-1.86104e-06
-1.86108e-06
-1.86108e-06
-1.86104e-06
-1.87129e-06
-1.87213e-06
-1.86025e-06
-1.86103e-06
-1.86177e-06
-1.86186e-06
-1.86187e-06
-1.86177e-06
-1.86104e-06
-1.88811e-06
-1.88248e-06
-1.87037e-06
-1.85825e-06
-1.86107e-06
-1.86186e-06
-1.86196e-06
-1.86196e-06
-1.86186e-06
-1.86108e-06
-1.89485e-06
-1.88169e-06
-1.87109e-06
-1.85624e-06
-1.86107e-06
-1.86186e-06
-1.86196e-06
-1.86197e-06
-1.86186e-06
-1.86108e-06
-1.89529e-06
-1.87365e-06
-1.86004e-06
-1.86103e-06
-1.86177e-06
-1.86186e-06
-1.86187e-06
-1.86177e-06
-1.86104e-06
-1.89304e-06
-1.88958e-06
-1.87379e-06
-1.87129e-06
-1.86103e-06
-1.86107e-06
-1.86108e-06
-1.86103e-06
-1.9048e-06
-1.88244e-06
-1.87892e-06
-1.87211e-06
-1.87212e-06
-1.8881e-06
-1.89484e-06
-1.89529e-06
-1.89306e-06
-1.88248e-06
-1.89026e-06
-1.88247e-06
-1.88169e-06
-1.87365e-06
-1.88957e-06
-1.87891e-06
-1.84904e-06
-1.84976e-06
-1.84535e-06
-1.83891e-06
-1.83684e-06
-1.83479e-06
-1.8387e-06
-1.8525e-06
-1.85085e-06
-1.84536e-06
-1.8262e-06
-1.83964e-06
-1.83965e-06
-1.83965e-06
-1.83964e-06
-1.85001e-06
-1.85086e-06
-1.83891e-06
-1.83964e-06
-1.83991e-06
-1.83995e-06
-1.83995e-06
-1.83991e-06
-1.83965e-06
-1.86677e-06
-1.86118e-06
-1.84902e-06
-1.83684e-06
-1.83965e-06
-1.83995e-06
-1.83998e-06
-1.83998e-06
-1.83995e-06
-1.83965e-06
-1.87347e-06
-1.86035e-06
-1.84975e-06
-1.83479e-06
-1.83964e-06
-1.83995e-06
-1.83998e-06
-1.83998e-06
-1.83995e-06
-1.83965e-06
-1.8739e-06
-1.8523e-06
-1.8387e-06
-1.83964e-06
-1.83991e-06
-1.83995e-06
-1.83995e-06
-1.83991e-06
-1.83964e-06
-1.87162e-06
-1.86827e-06
-1.8525e-06
-1.85001e-06
-1.83964e-06
-1.83965e-06
-1.83965e-06
-1.83964e-06
-1.88362e-06
-1.86114e-06
-1.85763e-06
-1.85085e-06
-1.85085e-06
-1.86676e-06
-1.87346e-06
-1.87391e-06
-1.87164e-06
-1.86118e-06
-1.86904e-06
-1.86118e-06
-1.86035e-06
-1.8523e-06
-1.86826e-06
-1.85763e-06
-1.82763e-06
-1.82834e-06
-1.82396e-06
-1.81749e-06
-1.81538e-06
-1.81333e-06
-1.81729e-06
-1.83109e-06
-1.82946e-06
-1.82396e-06
-1.80473e-06
-1.81821e-06
-1.8182e-06
-1.81821e-06
-1.81821e-06
-1.82861e-06
-1.82948e-06
-1.81748e-06
-1.81821e-06
-1.81831e-06
-1.81832e-06
-1.81832e-06
-1.81831e-06
-1.8182e-06
-1.84536e-06
-1.83978e-06
-1.82761e-06
-1.81538e-06
-1.8182e-06
-1.81832e-06
-1.81833e-06
-1.81833e-06
-1.81832e-06
-1.81821e-06
-1.85204e-06
-1.83894e-06
-1.82834e-06
-1.81333e-06
-1.8182e-06
-1.81832e-06
-1.81833e-06
-1.81833e-06
-1.81832e-06
-1.81821e-06
-1.85247e-06
-1.83089e-06
-1.81729e-06
-1.8182e-06
-1.8183e-06
-1.81832e-06
-1.81832e-06
-1.8183e-06
-1.8182e-06
-1.8502e-06
-1.84688e-06
-1.8311e-06
-1.82861e-06
-1.81821e-06
-1.8182e-06
-1.81821e-06
-1.81821e-06
-1.86229e-06
-1.83975e-06
-1.83624e-06
-1.82946e-06
-1.82947e-06
-1.84536e-06
-1.85205e-06
-1.85246e-06
-1.85021e-06
-1.83978e-06
-1.84767e-06
-1.83979e-06
-1.83895e-06
-1.83088e-06
-1.84688e-06
-1.83624e-06
-1.80619e-06
-1.8069e-06
-1.80253e-06
-1.79605e-06
-1.79392e-06
-1.79187e-06
-1.79586e-06
-1.80966e-06
-1.80803e-06
-1.80253e-06
-1.78327e-06
-1.79676e-06
-1.79676e-06
-1.79677e-06
-1.79676e-06
-1.80718e-06
-1.80806e-06
-1.79604e-06
-1.79676e-06
-1.79679e-06
-1.7968e-06
-1.7968e-06
-1.79679e-06
-1.79676e-06
-1.82392e-06
-1.81835e-06
-1.80617e-06
-1.79393e-06
-1.79677e-06
-1.7968e-06
-1.79681e-06
-1.79681e-06
-1.7968e-06
-1.79676e-06
-1.83059e-06
-1.81751e-06
-1.8069e-06
-1.79187e-06
-1.79676e-06
-1.7968e-06
-1.79681e-06
-1.79681e-06
-1.7968e-06
-1.79676e-06
-1.83101e-06
-1.80944e-06
-1.79586e-06
-1.79676e-06
-1.79679e-06
-1.7968e-06
-1.7968e-06
-1.79679e-06
-1.79676e-06
-1.82873e-06
-1.82544e-06
-1.80966e-06
-1.80717e-06
-1.79676e-06
-1.79676e-06
-1.79676e-06
-1.79676e-06
-1.8409e-06
-1.81833e-06
-1.81482e-06
-1.80804e-06
-1.80805e-06
-1.82392e-06
-1.83059e-06
-1.831e-06
-1.82875e-06
-1.81836e-06
-1.82624e-06
-1.81835e-06
-1.8175e-06
-1.80943e-06
-1.82544e-06
-1.81483e-06
-1.78475e-06
-1.78545e-06
-1.78109e-06
-1.7746e-06
-1.77247e-06
-1.77042e-06
-1.77441e-06
-1.78822e-06
-1.78659e-06
-1.78109e-06
-1.76181e-06
-1.77531e-06
-1.77531e-06
-1.77531e-06
-1.77531e-06
-1.78573e-06
-1.78662e-06
-1.77459e-06
-1.7753e-06
-1.77533e-06
-1.77533e-06
-1.77533e-06
-1.77533e-06
-1.77531e-06
-1.80249e-06
-1.79691e-06
-1.78473e-06
-1.77247e-06
-1.77531e-06
-1.77533e-06
-1.77533e-06
-1.77533e-06
-1.77533e-06
-1.77532e-06
-1.80916e-06
-1.79606e-06
-1.78545e-06
-1.77042e-06
-1.77531e-06
-1.77533e-06
-1.77533e-06
-1.77533e-06
-1.77533e-06
-1.77531e-06
-1.80957e-06
-1.78801e-06
-1.77441e-06
-1.77531e-06
-1.77533e-06
-1.77534e-06
-1.77534e-06
-1.77533e-06
-1.77531e-06
-1.80729e-06
-1.804e-06
-1.78822e-06
-1.78574e-06
-1.7753e-06
-1.77531e-06
-1.77531e-06
-1.7753e-06
-1.81946e-06
-1.79689e-06
-1.79337e-06
-1.7866e-06
-1.78661e-06
-1.80248e-06
-1.80915e-06
-1.80956e-06
-1.80731e-06
-1.79692e-06
-1.80481e-06
-1.79691e-06
-1.79606e-06
-1.78799e-06
-1.804e-06
-1.79338e-06
-1.7633e-06
-1.76401e-06
-1.75965e-06
-1.75315e-06
-1.75102e-06
-1.74896e-06
-1.75296e-06
-1.76678e-06
-1.76515e-06
-1.75965e-06
-1.74036e-06
-1.75386e-06
-1.75386e-06
-1.75386e-06
-1.75386e-06
-1.76429e-06
-1.76518e-06
-1.75314e-06
-1.75386e-06
-1.75387e-06
-1.75387e-06
-1.75387e-06
-1.75387e-06
-1.75386e-06
-1.78104e-06
-1.77547e-06
-1.76329e-06
-1.75102e-06
-1.75386e-06
-1.75387e-06
-1.75387e-06
-1.75387e-06
-1.75387e-06
-1.75386e-06
-1.78771e-06
-1.77462e-06
-1.76401e-06
-1.74896e-06
-1.75386e-06
-1.75387e-06
-1.75387e-06
-1.75387e-06
-1.75387e-06
-1.75386e-06
-1.78812e-06
-1.76656e-06
-1.75297e-06
-1.75386e-06
-1.75387e-06
-1.75387e-06
-1.75387e-06
-1.75387e-06
-1.75386e-06
-1.78584e-06
-1.78256e-06
-1.76678e-06
-1.7643e-06
-1.75386e-06
-1.75386e-06
-1.75386e-06
-1.75386e-06
-1.79802e-06
-1.77545e-06
-1.77193e-06
-1.76515e-06
-1.76517e-06
-1.78104e-06
-1.78771e-06
-1.78811e-06
-1.78586e-06
-1.77547e-06
-1.78337e-06
-1.77547e-06
-1.77462e-06
-1.76655e-06
-1.78256e-06
-1.77194e-06
-1.74185e-06
-1.74256e-06
-1.7382e-06
-1.7317e-06
-1.72957e-06
-1.72751e-06
-1.73151e-06
-1.74532e-06
-1.7437e-06
-1.7382e-06
-1.71891e-06
-1.73241e-06
-1.73241e-06
-1.73241e-06
-1.73241e-06
-1.74284e-06
-1.74373e-06
-1.7317e-06
-1.73241e-06
-1.73241e-06
-1.73241e-06
-1.73241e-06
-1.73241e-06
-1.73242e-06
-1.75959e-06
-1.75402e-06
-1.74184e-06
-1.72957e-06
-1.73241e-06
-1.73241e-06
-1.73242e-06
-1.73242e-06
-1.73241e-06
-1.73241e-06
-1.76626e-06
-1.75317e-06
-1.74256e-06
-1.72752e-06
-1.73241e-06
-1.73241e-06
-1.73242e-06
-1.73242e-06
-1.73241e-06
-1.73241e-06
-1.76666e-06
-1.74511e-06
-1.73152e-06
-1.73241e-06
-1.73241e-06
-1.73241e-06
-1.73241e-06
-1.73241e-06
-1.73241e-06
-1.76439e-06
-1.76111e-06
-1.74533e-06
-1.74285e-06
-1.73241e-06
-1.73241e-06
-1.73241e-06
-1.73241e-06
-1.77656e-06
-1.75399e-06
-1.75048e-06
-1.7437e-06
-1.74372e-06
-1.75959e-06
-1.76626e-06
-1.76666e-06
-1.76441e-06
-1.75402e-06
-1.76192e-06
-1.75402e-06
-1.75317e-06
-1.7451e-06
-1.76111e-06
-1.75049e-06
-1.7204e-06
-1.72111e-06
-1.71676e-06
-1.71025e-06
-1.70812e-06
-1.70607e-06
-1.71007e-06
-1.72387e-06
-1.72225e-06
-1.71675e-06
-1.69746e-06
-1.71096e-06
-1.71096e-06
-1.71096e-06
-1.71096e-06
-1.72139e-06
-1.72227e-06
-1.71025e-06
-1.71096e-06
-1.71096e-06
-1.71096e-06
-1.71096e-06
-1.71096e-06
-1.71096e-06
-1.73814e-06
-1.73257e-06
-1.72039e-06
-1.70812e-06
-1.71096e-06
-1.71096e-06
-1.71096e-06
-1.71096e-06
-1.71096e-06
-1.71096e-06
-1.7448e-06
-1.73172e-06
-1.72111e-06
-1.70606e-06
-1.71096e-06
-1.71096e-06
-1.71096e-06
-1.71096e-06
-1.71096e-06
-1.71096e-06
-1.74521e-06
-1.72366e-06
-1.71007e-06
-1.71096e-06
-1.71096e-06
-1.71096e-06
-1.71096e-06
-1.71096e-06
-1.71096e-06
-1.74294e-06
-1.73966e-06
-1.72388e-06
-1.7214e-06
-1.71096e-06
-1.71096e-06
-1.71096e-06
-1.71096e-06
-1.75512e-06
-1.73255e-06
-1.72903e-06
-1.72225e-06
-1.72227e-06
-1.73814e-06
-1.74481e-06
-1.74521e-06
-1.74296e-06
-1.73258e-06
-1.74047e-06
-1.73257e-06
-1.73172e-06
-1.72365e-06
-1.73966e-06
-1.72904e-06
-1.69895e-06
-1.69966e-06
-1.6953e-06
-1.6888e-06
-1.68667e-06
-1.68461e-06
-1.68862e-06
-1.70242e-06
-1.7008e-06
-1.6953e-06
-1.67601e-06
-1.68951e-06
-1.68951e-06
-1.68951e-06
-1.68951e-06
-1.69994e-06
-1.70082e-06
-1.68879e-06
-1.68951e-06
-1.68951e-06
-1.68951e-06
-1.68951e-06
-1.68951e-06
-1.68951e-06
-1.71669e-06
-1.71112e-06
-1.69894e-06
-1.68667e-06
-1.68951e-06
-1.68951e-06
-1.68951e-06
-1.68951e-06
-1.68951e-06
-1.68951e-06
-1.72335e-06
-1.71027e-06
-1.69966e-06
-1.68461e-06
-1.68951e-06
-1.68951e-06
-1.68951e-06
-1.68951e-06
-1.68951e-06
-1.68951e-06
-1.72376e-06
-1.70221e-06
-1.68862e-06
-1.68951e-06
-1.68951e-06
-1.68951e-06
-1.68951e-06
-1.68951e-06
-1.68951e-06
-1.72149e-06
-1.71821e-06
-1.70243e-06
-1.69995e-06
-1.68951e-06
-1.68951e-06
-1.68951e-06
-1.68951e-06
-1.73367e-06
-1.7111e-06
-1.70758e-06
-1.7008e-06
-1.70082e-06
-1.71669e-06
-1.72336e-06
-1.72376e-06
-1.72151e-06
-1.71112e-06
-1.71902e-06
-1.71112e-06
-1.71027e-06
-1.7022e-06
-1.71821e-06
-1.70759e-06
-1.6775e-06
-1.67821e-06
-1.67386e-06
-1.66735e-06
-1.66522e-06
-1.66316e-06
-1.66717e-06
-1.68097e-06
-1.67934e-06
-1.67385e-06
-1.65455e-06
-1.66806e-06
-1.66806e-06
-1.66806e-06
-1.66806e-06
-1.67849e-06
-1.67937e-06
-1.66734e-06
-1.66806e-06
-1.66806e-06
-1.66806e-06
-1.66806e-06
-1.66806e-06
-1.66806e-06
-1.69523e-06
-1.68967e-06
-1.67749e-06
-1.66522e-06
-1.66806e-06
-1.66806e-06
-1.66806e-06
-1.66806e-06
-1.66806e-06
-1.66806e-06
-1.7019e-06
-1.68882e-06
-1.67821e-06
-1.66316e-06
-1.66806e-06
-1.66806e-06
-1.66806e-06
-1.66806e-06
-1.66806e-06
-1.66806e-06
-1.70231e-06
-1.68076e-06
-1.66717e-06
-1.66806e-06
-1.66806e-06
-1.66806e-06
-1.66806e-06
-1.66806e-06
-1.66806e-06
-1.70004e-06
-1.69676e-06
-1.68097e-06
-1.6785e-06
-1.66806e-06
-1.66806e-06
-1.66806e-06
-1.66806e-06
-1.71222e-06
-1.68964e-06
-1.68613e-06
-1.67935e-06
-1.67937e-06
-1.69523e-06
-1.7019e-06
-1.70231e-06
-1.70006e-06
-1.68967e-06
-1.69757e-06
-1.68967e-06
-1.68882e-06
-1.68075e-06
-1.69676e-06
-1.68614e-06
-1.65605e-06
-1.65675e-06
-1.6524e-06
-1.6459e-06
-1.64377e-06
-1.64171e-06
-1.64572e-06
-1.65952e-06
-1.65789e-06
-1.6524e-06
-1.6331e-06
-1.64661e-06
-1.64661e-06
-1.64661e-06
-1.64661e-06
-1.65703e-06
-1.65792e-06
-1.64589e-06
-1.64661e-06
-1.64661e-06
-1.64661e-06
-1.64661e-06
-1.64661e-06
-1.64661e-06
-1.67378e-06
-1.66822e-06
-1.65603e-06
-1.64377e-06
-1.64661e-06
-1.64661e-06
-1.64661e-06
-1.64661e-06
-1.64661e-06
-1.64661e-06
-1.68045e-06
-1.66737e-06
-1.65675e-06
-1.64171e-06
-1.64661e-06
-1.64661e-06
-1.64661e-06
-1.64661e-06
-1.64661e-06
-1.64661e-06
-1.68086e-06
-1.6593e-06
-1.64572e-06
-1.64661e-06
-1.64661e-06
-1.64661e-06
-1.64661e-06
-1.64661e-06
-1.64661e-06
-1.67859e-06
-1.6753e-06
-1.65952e-06
-1.65705e-06
-1.64661e-06
-1.64661e-06
-1.64661e-06
-1.64661e-06
-1.69077e-06
-1.66819e-06
-1.66468e-06
-1.6579e-06
-1.65792e-06
-1.67378e-06
-1.68045e-06
-1.68086e-06
-1.67861e-06
-1.66822e-06
-1.67612e-06
-1.66822e-06
-1.66736e-06
-1.6593e-06
-1.67531e-06
-1.66469e-06
-1.6346e-06
-1.63531e-06
-1.63095e-06
-1.62445e-06
-1.62232e-06
-1.62026e-06
-1.62427e-06
-1.63807e-06
-1.63644e-06
-1.63095e-06
-1.61166e-06
-1.62516e-06
-1.62516e-06
-1.62516e-06
-1.62516e-06
-1.63558e-06
-1.63647e-06
-1.62444e-06
-1.62516e-06
-1.62516e-06
-1.62516e-06
-1.62516e-06
-1.62516e-06
-1.62516e-06
-1.65233e-06
-1.64677e-06
-1.63458e-06
-1.62232e-06
-1.62516e-06
-1.62516e-06
-1.62516e-06
-1.62516e-06
-1.62516e-06
-1.62516e-06
-1.659e-06
-1.64592e-06
-1.63531e-06
-1.62026e-06
-1.62516e-06
-1.62516e-06
-1.62516e-06
-1.62516e-06
-1.62516e-06
-1.62516e-06
-1.65941e-06
-1.63786e-06
-1.62427e-06
-1.62516e-06
-1.62516e-06
-1.62516e-06
-1.62516e-06
-1.62516e-06
-1.62516e-06
-1.65714e-06
-1.65386e-06
-1.63807e-06
-1.6356e-06
-1.62516e-06
-1.62516e-06
-1.62516e-06
-1.62516e-06
-1.66932e-06
-1.64674e-06
-1.64323e-06
-1.63645e-06
-1.63647e-06
-1.65234e-06
-1.659e-06
-1.65941e-06
-1.65716e-06
-1.64677e-06
-1.65467e-06
-1.64677e-06
-1.64592e-06
-1.63785e-06
-1.65386e-06
-1.64324e-06
-1.61315e-06
-1.61386e-06
-1.60951e-06
-1.603e-06
-1.60087e-06
-1.59881e-06
-1.60282e-06
-1.61662e-06
-1.61499e-06
-1.6095e-06
-1.59021e-06
-1.60371e-06
-1.60371e-06
-1.60371e-06
-1.60371e-06
-1.61414e-06
-1.61502e-06
-1.60299e-06
-1.60371e-06
-1.60371e-06
-1.60371e-06
-1.60371e-06
-1.60371e-06
-1.60371e-06
-1.63088e-06
-1.62532e-06
-1.61314e-06
-1.60087e-06
-1.60371e-06
-1.60371e-06
-1.60371e-06
-1.60371e-06
-1.60371e-06
-1.60371e-06
-1.63755e-06
-1.62447e-06
-1.61386e-06
-1.59881e-06
-1.60371e-06
-1.60371e-06
-1.60371e-06
-1.60371e-06
-1.60371e-06
-1.60371e-06
-1.63796e-06
-1.61641e-06
-1.60282e-06
-1.60371e-06
-1.60371e-06
-1.60371e-06
-1.60371e-06
-1.60371e-06
-1.60371e-06
-1.63569e-06
-1.63241e-06
-1.61663e-06
-1.61415e-06
-1.60371e-06
-1.60371e-06
-1.60371e-06
-1.60371e-06
-1.64787e-06
-1.6253e-06
-1.62178e-06
-1.615e-06
-1.61502e-06
-1.63089e-06
-1.63756e-06
-1.63796e-06
-1.63571e-06
-1.62532e-06
-1.63322e-06
-1.62532e-06
-1.62447e-06
-1.6164e-06
-1.63241e-06
-1.62179e-06
-1.5917e-06
-1.59241e-06
-1.58806e-06
-1.58155e-06
-1.57942e-06
-1.57736e-06
-1.58137e-06
-1.59517e-06
-1.59355e-06
-1.58805e-06
-1.56876e-06
-1.58226e-06
-1.58226e-06
-1.58226e-06
-1.58226e-06
-1.59269e-06
-1.59357e-06
-1.58154e-06
-1.58226e-06
-1.58226e-06
-1.58226e-06
-1.58226e-06
-1.58226e-06
-1.58226e-06
-1.60944e-06
-1.60387e-06
-1.59169e-06
-1.57942e-06
-1.58226e-06
-1.58226e-06
-1.58226e-06
-1.58226e-06
-1.58226e-06
-1.58226e-06
-1.6161e-06
-1.60302e-06
-1.59241e-06
-1.57736e-06
-1.58226e-06
-1.58226e-06
-1.58226e-06
-1.58226e-06
-1.58226e-06
-1.58226e-06
-1.61651e-06
-1.59496e-06
-1.58137e-06
-1.58226e-06
-1.58226e-06
-1.58226e-06
-1.58226e-06
-1.58226e-06
-1.58226e-06
-1.61424e-06
-1.61096e-06
-1.59518e-06
-1.5927e-06
-1.58226e-06
-1.58226e-06
-1.58226e-06
-1.58226e-06
-1.62642e-06
-1.60385e-06
-1.60033e-06
-1.59355e-06
-1.59357e-06
-1.60944e-06
-1.61611e-06
-1.61651e-06
-1.61427e-06
-1.60388e-06
-1.61177e-06
-1.60387e-06
-1.60302e-06
-1.59495e-06
-1.61096e-06
-1.60034e-06
-1.57025e-06
-1.57096e-06
-1.56661e-06
-1.5601e-06
-1.55797e-06
-1.55591e-06
-1.55992e-06
-1.57372e-06
-1.5721e-06
-1.5666e-06
-1.54731e-06
-1.56081e-06
-1.56081e-06
-1.56081e-06
-1.56081e-06
-1.57124e-06
-1.57213e-06
-1.5601e-06
-1.56081e-06
-1.56081e-06
-1.56081e-06
-1.56081e-06
-1.56081e-06
-1.56081e-06
-1.58799e-06
-1.58242e-06
-1.57024e-06
-1.55797e-06
-1.56081e-06
-1.56081e-06
-1.56081e-06
-1.56081e-06
-1.56081e-06
-1.56081e-06
-1.59465e-06
-1.58157e-06
-1.57096e-06
-1.55591e-06
-1.56081e-06
-1.56081e-06
-1.56081e-06
-1.56081e-06
-1.56081e-06
-1.56081e-06
-1.59506e-06
-1.57351e-06
-1.55992e-06
-1.56081e-06
-1.56081e-06
-1.56081e-06
-1.56081e-06
-1.56081e-06
-1.56081e-06
-1.59279e-06
-1.58951e-06
-1.57373e-06
-1.57125e-06
-1.56081e-06
-1.56081e-06
-1.56081e-06
-1.56081e-06
-1.60497e-06
-1.5824e-06
-1.57888e-06
-1.57211e-06
-1.57212e-06
-1.58799e-06
-1.59466e-06
-1.59507e-06
-1.59282e-06
-1.58243e-06
-1.59032e-06
-1.58242e-06
-1.58157e-06
-1.5735e-06
-1.58951e-06
-1.57889e-06
-1.5488e-06
-1.54951e-06
-1.54516e-06
-1.53865e-06
-1.53652e-06
-1.53447e-06
-1.53847e-06
-1.55228e-06
-1.55065e-06
-1.54515e-06
-1.52586e-06
-1.53936e-06
-1.53936e-06
-1.53936e-06
-1.53936e-06
-1.54979e-06
-1.55068e-06
-1.53865e-06
-1.53936e-06
-1.53936e-06
-1.53936e-06
-1.53936e-06
-1.53936e-06
-1.53936e-06
-1.56654e-06
-1.56097e-06
-1.54879e-06
-1.53652e-06
-1.53936e-06
-1.53936e-06
-1.53936e-06
-1.53936e-06
-1.53936e-06
-1.53936e-06
-1.5732e-06
-1.56012e-06
-1.54951e-06
-1.53446e-06
-1.53936e-06
-1.53936e-06
-1.53936e-06
-1.53936e-06
-1.53936e-06
-1.53936e-06
-1.57362e-06
-1.55206e-06
-1.53847e-06
-1.53936e-06
-1.53936e-06
-1.53936e-06
-1.53936e-06
-1.53936e-06
-1.53936e-06
-1.57135e-06
-1.56806e-06
-1.55228e-06
-1.5498e-06
-1.53936e-06
-1.53936e-06
-1.53936e-06
-1.53936e-06
-1.58352e-06
-1.56095e-06
-1.55743e-06
-1.55066e-06
-1.55067e-06
-1.56654e-06
-1.57321e-06
-1.57361e-06
-1.57137e-06
-1.56098e-06
-1.56887e-06
-1.56097e-06
-1.56012e-06
-1.55205e-06
-1.56807e-06
-1.55744e-06
-1.52735e-06
-1.52806e-06
-1.52371e-06
-1.5172e-06
-1.51507e-06
-1.51301e-06
-1.51702e-06
-1.53083e-06
-1.5292e-06
-1.5237e-06
-1.50441e-06
-1.51791e-06
-1.51791e-06
-1.51791e-06
-1.51791e-06
-1.52834e-06
-1.52922e-06
-1.5172e-06
-1.51791e-06
-1.51791e-06
-1.51791e-06
-1.51791e-06
-1.51791e-06
-1.51791e-06
-1.54509e-06
-1.53952e-06
-1.52734e-06
-1.51507e-06
-1.51791e-06
-1.51791e-06
-1.51791e-06
-1.51791e-06
-1.51791e-06
-1.51791e-06
-1.55175e-06
-1.53867e-06
-1.52806e-06
-1.51301e-06
-1.51791e-06
-1.51791e-06
-1.51791e-06
-1.51791e-06
-1.51791e-06
-1.51791e-06
-1.55216e-06
-1.53061e-06
-1.51702e-06
-1.51791e-06
-1.51791e-06
-1.51791e-06
-1.51791e-06
-1.51791e-06
-1.51791e-06
-1.54989e-06
-1.54661e-06
-1.53083e-06
-1.52835e-06
-1.51791e-06
-1.51791e-06
-1.51791e-06
-1.51791e-06
-1.56207e-06
-1.5395e-06
-1.53598e-06
-1.5292e-06
-1.52922e-06
-1.54509e-06
-1.55175e-06
-1.55217e-06
-1.54992e-06
-1.53953e-06
-1.54742e-06
-1.53952e-06
-1.53867e-06
-1.5306e-06
-1.54661e-06
-1.53599e-06
-1.5059e-06
-1.50661e-06
-1.50226e-06
-1.49575e-06
-1.49362e-06
-1.49156e-06
-1.49557e-06
-1.50938e-06
-1.50775e-06
-1.50225e-06
-1.48296e-06
-1.49646e-06
-1.49646e-06
-1.49646e-06
-1.49646e-06
-1.50689e-06
-1.50777e-06
-1.49574e-06
-1.49646e-06
-1.49646e-06
-1.49646e-06
-1.49646e-06
-1.49646e-06
-1.49646e-06
-1.52364e-06
-1.51807e-06
-1.50589e-06
-1.49362e-06
-1.49646e-06
-1.49646e-06
-1.49646e-06
-1.49646e-06
-1.49646e-06
-1.49646e-06
-1.5303e-06
-1.51722e-06
-1.50661e-06
-1.49156e-06
-1.49646e-06
-1.49646e-06
-1.49646e-06
-1.49646e-06
-1.49646e-06
-1.49646e-06
-1.53071e-06
-1.50916e-06
-1.49557e-06
-1.49646e-06
-1.49646e-06
-1.49646e-06
-1.49646e-06
-1.49646e-06
-1.49646e-06
-1.52844e-06
-1.52516e-06
-1.50938e-06
-1.5069e-06
-1.49646e-06
-1.49646e-06
-1.49646e-06
-1.49646e-06
-1.54062e-06
-1.51804e-06
-1.51453e-06
-1.50775e-06
-1.50777e-06
-1.52364e-06
-1.5303e-06
-1.53071e-06
-1.52847e-06
-1.51807e-06
-1.52597e-06
-1.51807e-06
-1.51722e-06
-1.50915e-06
-1.52516e-06
-1.51454e-06
-1.48445e-06
-1.48515e-06
-1.4808e-06
-1.4743e-06
-1.47217e-06
-1.47011e-06
-1.47412e-06
-1.48792e-06
-1.48629e-06
-1.4808e-06
-1.46151e-06
-1.47501e-06
-1.47501e-06
-1.47501e-06
-1.47501e-06
-1.48544e-06
-1.48632e-06
-1.47429e-06
-1.47501e-06
-1.47501e-06
-1.47501e-06
-1.47501e-06
-1.47501e-06
-1.47501e-06
-1.50218e-06
-1.49662e-06
-1.48443e-06
-1.47217e-06
-1.47501e-06
-1.47501e-06
-1.47501e-06
-1.47501e-06
-1.47501e-06
-1.47501e-06
-1.50885e-06
-1.49577e-06
-1.48515e-06
-1.47011e-06
-1.47501e-06
-1.47501e-06
-1.47501e-06
-1.47501e-06
-1.47501e-06
-1.47501e-06
-1.50926e-06
-1.4877e-06
-1.47412e-06
-1.47501e-06
-1.47501e-06
-1.47501e-06
-1.47501e-06
-1.47501e-06
-1.47501e-06
-1.50699e-06
-1.5037e-06
-1.48792e-06
-1.48545e-06
-1.47501e-06
-1.47501e-06
-1.47501e-06
-1.47501e-06
-1.51917e-06
-1.49659e-06
-1.49308e-06
-1.4863e-06
-1.48632e-06
-1.50218e-06
-1.50885e-06
-1.50926e-06
-1.50701e-06
-1.49662e-06
-1.50452e-06
-1.49662e-06
-1.49577e-06
-1.4877e-06
-1.50371e-06
-1.49308e-06
-1.463e-06
-1.4637e-06
-1.45935e-06
-1.45285e-06
-1.45072e-06
-1.44866e-06
-1.45267e-06
-1.46647e-06
-1.46484e-06
-1.45935e-06
-1.44006e-06
-1.45356e-06
-1.45356e-06
-1.45356e-06
-1.45356e-06
-1.46398e-06
-1.46487e-06
-1.45284e-06
-1.45356e-06
-1.45356e-06
-1.45356e-06
-1.45356e-06
-1.45356e-06
-1.45356e-06
-1.48073e-06
-1.47517e-06
-1.46298e-06
-1.45072e-06
-1.45356e-06
-1.45356e-06
-1.45356e-06
-1.45356e-06
-1.45356e-06
-1.45356e-06
-1.4874e-06
-1.47431e-06
-1.4637e-06
-1.44866e-06
-1.45356e-06
-1.45356e-06
-1.45356e-06
-1.45356e-06
-1.45356e-06
-1.45356e-06
-1.48781e-06
-1.46625e-06
-1.45267e-06
-1.45356e-06
-1.45356e-06
-1.45356e-06
-1.45356e-06
-1.45356e-06
-1.45356e-06
-1.48554e-06
-1.48225e-06
-1.46647e-06
-1.46399e-06
-1.45356e-06
-1.45356e-06
-1.45356e-06
-1.45356e-06
-1.49772e-06
-1.47514e-06
-1.47163e-06
-1.46485e-06
-1.46487e-06
-1.48073e-06
-1.4874e-06
-1.48781e-06
-1.48556e-06
-1.47517e-06
-1.48307e-06
-1.47517e-06
-1.47432e-06
-1.46625e-06
-1.48226e-06
-1.47163e-06
-1.44155e-06
-1.44226e-06
-1.4379e-06
-1.4314e-06
-1.42927e-06
-1.42721e-06
-1.43122e-06
-1.44502e-06
-1.4434e-06
-1.4379e-06
-1.41861e-06
-1.43211e-06
-1.43211e-06
-1.43211e-06
-1.43211e-06
-1.44254e-06
-1.44342e-06
-1.43139e-06
-1.43211e-06
-1.43211e-06
-1.43211e-06
-1.43211e-06
-1.43211e-06
-1.43211e-06
-1.45929e-06
-1.45372e-06
-1.44153e-06
-1.42927e-06
-1.43211e-06
-1.43211e-06
-1.43211e-06
-1.43211e-06
-1.43211e-06
-1.43211e-06
-1.46595e-06
-1.45287e-06
-1.44226e-06
-1.42721e-06
-1.43211e-06
-1.43211e-06
-1.43211e-06
-1.43211e-06
-1.43211e-06
-1.43211e-06
-1.46636e-06
-1.44481e-06
-1.43122e-06
-1.43211e-06
-1.43211e-06
-1.43211e-06
-1.43211e-06
-1.43211e-06
-1.43211e-06
-1.46409e-06
-1.4608e-06
-1.44502e-06
-1.44255e-06
-1.43211e-06
-1.43211e-06
-1.43211e-06
-1.43211e-06
-1.47627e-06
-1.45369e-06
-1.45018e-06
-1.4434e-06
-1.44342e-06
-1.45929e-06
-1.46595e-06
-1.46636e-06
-1.46412e-06
-1.45372e-06
-1.46162e-06
-1.45372e-06
-1.45287e-06
-1.4448e-06
-1.46081e-06
-1.45018e-06
-1.4201e-06
-1.42081e-06
-1.41646e-06
-1.40995e-06
-1.40782e-06
-1.40576e-06
-1.40977e-06
-1.42358e-06
-1.42195e-06
-1.41645e-06
-1.39716e-06
-1.41066e-06
-1.41066e-06
-1.41066e-06
-1.41066e-06
-1.42109e-06
-1.42197e-06
-1.40994e-06
-1.41066e-06
-1.41066e-06
-1.41066e-06
-1.41066e-06
-1.41066e-06
-1.41066e-06
-1.43784e-06
-1.43227e-06
-1.42009e-06
-1.40782e-06
-1.41066e-06
-1.41066e-06
-1.41066e-06
-1.41066e-06
-1.41066e-06
-1.41066e-06
-1.4445e-06
-1.43142e-06
-1.42081e-06
-1.40576e-06
-1.41066e-06
-1.41066e-06
-1.41066e-06
-1.41066e-06
-1.41066e-06
-1.41066e-06
-1.44491e-06
-1.42336e-06
-1.40977e-06
-1.41066e-06
-1.41066e-06
-1.41066e-06
-1.41066e-06
-1.41066e-06
-1.41066e-06
-1.44264e-06
-1.43936e-06
-1.42358e-06
-1.4211e-06
-1.41066e-06
-1.41066e-06
-1.41066e-06
-1.41066e-06
-1.45482e-06
-1.43225e-06
-1.42873e-06
-1.42195e-06
-1.42197e-06
-1.43784e-06
-1.4445e-06
-1.44491e-06
-1.44267e-06
-1.43227e-06
-1.44017e-06
-1.43227e-06
-1.43142e-06
-1.42335e-06
-1.43936e-06
-1.42874e-06
-1.39865e-06
-1.39936e-06
-1.39501e-06
-1.3885e-06
-1.38637e-06
-1.38432e-06
-1.38832e-06
-1.40213e-06
-1.4005e-06
-1.395e-06
-1.37571e-06
-1.38921e-06
-1.38921e-06
-1.38921e-06
-1.38921e-06
-1.39964e-06
-1.40052e-06
-1.3885e-06
-1.38921e-06
-1.38921e-06
-1.38921e-06
-1.38921e-06
-1.38921e-06
-1.38921e-06
-1.41639e-06
-1.41082e-06
-1.39864e-06
-1.38637e-06
-1.38921e-06
-1.38921e-06
-1.38921e-06
-1.38921e-06
-1.38921e-06
-1.38921e-06
-1.42305e-06
-1.40997e-06
-1.39936e-06
-1.38431e-06
-1.38921e-06
-1.38921e-06
-1.38921e-06
-1.38921e-06
-1.38921e-06
-1.38921e-06
-1.42346e-06
-1.40191e-06
-1.38832e-06
-1.38921e-06
-1.38921e-06
-1.38921e-06
-1.38921e-06
-1.38921e-06
-1.38921e-06
-1.42119e-06
-1.41791e-06
-1.40213e-06
-1.39965e-06
-1.38921e-06
-1.38921e-06
-1.38921e-06
-1.38921e-06
-1.43337e-06
-1.4108e-06
-1.40728e-06
-1.40051e-06
-1.40052e-06
-1.41639e-06
-1.42306e-06
-1.42347e-06
-1.42122e-06
-1.41083e-06
-1.41872e-06
-1.41082e-06
-1.40997e-06
-1.4019e-06
-1.41791e-06
-1.40729e-06
-1.3772e-06
-1.37791e-06
-1.37356e-06
-1.36706e-06
-1.36492e-06
-1.36287e-06
-1.36687e-06
-1.38068e-06
-1.37905e-06
-1.37355e-06
-1.35426e-06
-1.36776e-06
-1.36776e-06
-1.36776e-06
-1.36776e-06
-1.37819e-06
-1.37907e-06
-1.36705e-06
-1.36776e-06
-1.36776e-06
-1.36776e-06
-1.36776e-06
-1.36776e-06
-1.36776e-06
-1.39494e-06
-1.38937e-06
-1.37719e-06
-1.36492e-06
-1.36776e-06
-1.36776e-06
-1.36776e-06
-1.36776e-06
-1.36776e-06
-1.36776e-06
-1.4016e-06
-1.38852e-06
-1.37791e-06
-1.36287e-06
-1.36776e-06
-1.36776e-06
-1.36776e-06
-1.36776e-06
-1.36776e-06
-1.36776e-06
-1.40201e-06
-1.38046e-06
-1.36687e-06
-1.36776e-06
-1.36776e-06
-1.36776e-06
-1.36776e-06
-1.36776e-06
-1.36776e-06
-1.39974e-06
-1.39646e-06
-1.38068e-06
-1.3782e-06
-1.36776e-06
-1.36776e-06
-1.36776e-06
-1.36776e-06
-1.41192e-06
-1.38935e-06
-1.38583e-06
-1.37906e-06
-1.37907e-06
-1.39494e-06
-1.40161e-06
-1.40202e-06
-1.39977e-06
-1.38938e-06
-1.39727e-06
-1.38937e-06
-1.38852e-06
-1.38046e-06
-1.39646e-06
-1.38584e-06
-1.35575e-06
-1.35646e-06
-1.35211e-06
-1.3456e-06
-1.34347e-06
-1.34142e-06
-1.34542e-06
-1.35923e-06
-1.3576e-06
-1.3521e-06
-1.33281e-06
-1.34631e-06
-1.34631e-06
-1.34631e-06
-1.34631e-06
-1.35674e-06
-1.35762e-06
-1.3456e-06
-1.34631e-06
-1.34631e-06
-1.34631e-06
-1.34631e-06
-1.34631e-06
-1.34631e-06
-1.37349e-06
-1.36792e-06
-1.35574e-06
-1.34347e-06
-1.34631e-06
-1.34631e-06
-1.34631e-06
-1.34631e-06
-1.34631e-06
-1.34631e-06
-1.38015e-06
-1.36707e-06
-1.35646e-06
-1.34142e-06
-1.34631e-06
-1.34631e-06
-1.34631e-06
-1.34631e-06
-1.34631e-06
-1.34631e-06
-1.38056e-06
-1.35901e-06
-1.34542e-06
-1.34631e-06
-1.34631e-06
-1.34631e-06
-1.34631e-06
-1.34631e-06
-1.34631e-06
-1.37829e-06
-1.37501e-06
-1.35923e-06
-1.35675e-06
-1.34631e-06
-1.34631e-06
-1.34631e-06
-1.34631e-06
-1.39047e-06
-1.3679e-06
-1.36438e-06
-1.3576e-06
-1.35762e-06
-1.37349e-06
-1.38016e-06
-1.38057e-06
-1.37832e-06
-1.36793e-06
-1.37582e-06
-1.36792e-06
-1.36707e-06
-1.359e-06
-1.37501e-06
-1.36439e-06
-1.3343e-06
-1.33501e-06
-1.33066e-06
-1.32415e-06
-1.32202e-06
-1.31996e-06
-1.32397e-06
-1.33778e-06
-1.33615e-06
-1.33065e-06
-1.31136e-06
-1.32486e-06
-1.32486e-06
-1.32486e-06
-1.32486e-06
-1.33529e-06
-1.33617e-06
-1.32414e-06
-1.32486e-06
-1.32486e-06
-1.32486e-06
-1.32486e-06
-1.32486e-06