/*--------------------------------*- C++ -*----------------------------------*\
| =========                 |                                                 |
| \\      /  F ield         | OpenFOAM: The Open Source CFD Toolbox           |
|  \\    /   O peration     | Version:  v2012                                 |
|   \\  /    A nd           | Website:  www.openfoam.com                      |
|    \\/     M anipulation  |                                                 |
\*---------------------------------------------------------------------------*/
FoamFile
{
    version     2.0;
    format      ascii;
    class       volScalarField;
    location    "0.015";
    object      p;
}
// * * * * * * * * * * * * * * * * * * * * * * * * * * * * * * * * * * * * * //

dimensions      [0 2 -2 0 0 0 0];


internalField   nonuniform List<scalar> 
189320
(
-1.97217e-05
-1.97126e-05
-1.97882e-05
-2.01293e-05
-2.03097e-05
-2.03567e-05
-2.02325e-05
-2.00379e-05
-1.98433e-05
-1.97872e-05
-2.02723e-05
-2.04859e-05
-2.05407e-05
-2.05548e-05
-2.05217e-05
-2.04092e-05
-2.01008e-05
-2.01293e-05
-2.04862e-05
-2.0571e-05
-2.06053e-05
-2.06113e-05
-2.05929e-05
-2.05357e-05
-2.03571e-05
-1.99544e-05
-1.97183e-05
-2.03136e-05
-2.05412e-05
-2.06054e-05
-2.06347e-05
-2.0641e-05
-2.06232e-05
-2.05813e-05
-2.04654e-05
-2.00867e-05
-1.97117e-05
-2.03578e-05
-2.0555e-05
-2.06113e-05
-2.06409e-05
-2.06482e-05
-2.06292e-05
-2.05883e-05
-2.05086e-05
-2.00762e-05
-2.02322e-05
-2.05215e-05
-2.05926e-05
-2.06229e-05
-2.0629e-05
-2.06112e-05
-2.05654e-05
-2.04247e-05
-2.00114e-05
-2.00375e-05
-2.04088e-05
-2.0535e-05
-2.05805e-05
-2.05877e-05
-2.05651e-05
-2.04865e-05
-2.02376e-05
-1.98629e-05
-1.98423e-05
-2.01e-05
-2.03558e-05
-2.04629e-05
-2.05071e-05
-2.0424e-05
-2.0238e-05
-2.01292e-05
-1.99533e-05
-2.00846e-05
-2.00746e-05
-2.00106e-05
-1.9862e-05
-2.01653e-05
-2.0167e-05
-2.00723e-05
-2.01745e-05
-2.02504e-05
-2.0273e-05
-2.0248e-05
-2.01916e-05
-2.00919e-05
-2.00709e-05
-2.00946e-05
-1.99259e-05
-1.99462e-05
-1.9947e-05
-1.99256e-05
-2.02282e-05
-2.0122e-05
-2.01746e-05
-1.99253e-05
-2.00489e-05
-2.01139e-05
-2.01143e-05
-2.00491e-05
-1.99259e-05
-2.03936e-05
-2.01976e-05
-2.01648e-05
-2.02501e-05
-1.99471e-05
-2.01144e-05
-2.01924e-05
-2.01924e-05
-2.01141e-05
-1.99465e-05
-2.06428e-05
-2.02508e-05
-2.0166e-05
-2.02713e-05
-1.99469e-05
-2.01144e-05
-2.01924e-05
-2.01924e-05
-2.0114e-05
-1.99464e-05
-2.0707e-05
-2.02387e-05
-2.02466e-05
-1.99255e-05
-2.0049e-05
-2.01142e-05
-2.01143e-05
-2.00491e-05
-1.9926e-05
-2.0544e-05
-2.02532e-05
-2.01912e-05
-2.02284e-05
-1.99256e-05
-1.99463e-05
-1.99468e-05
-1.99253e-05
-2.043e-05
-2.02622e-05
-2.01736e-05
-2.0092e-05
-2.01225e-05
-2.0395e-05
-2.06431e-05
-2.0707e-05
-2.05457e-05
-2.02661e-05
-2.01861e-05
-2.01979e-05
-2.02515e-05
-2.02398e-05
-2.02538e-05
-2.01743e-05
-1.98819e-05
-1.98645e-05
-1.98458e-05
-1.98786e-05
-1.9886e-05
-1.9859e-05
-1.9883e-05
-1.99316e-05
-1.98705e-05
-1.98456e-05
-1.98405e-05
-1.97652e-05
-1.97939e-05
-1.97947e-05
-1.97659e-05
-1.99794e-05
-1.98795e-05
-1.98781e-05
-1.97656e-05
-1.98411e-05
-1.98881e-05
-1.9889e-05
-1.98415e-05
-1.97655e-05
-2.00364e-05
-1.99335e-05
-1.98814e-05
-1.98853e-05
-1.97943e-05
-1.98888e-05
-1.99405e-05
-1.99406e-05
-1.98885e-05
-1.97942e-05
-2.00859e-05
-1.99372e-05
-1.98641e-05
-1.98584e-05
-1.97942e-05
-1.98888e-05
-1.99405e-05
-1.99405e-05
-1.98884e-05
-1.97942e-05
-2.01034e-05
-1.98646e-05
-1.98825e-05
-1.97654e-05
-1.98412e-05
-1.98885e-05
-1.98888e-05
-1.98413e-05
-1.97655e-05
-2.00685e-05
-1.99506e-05
-1.99314e-05
-1.99786e-05
-1.97651e-05
-1.97938e-05
-1.97945e-05
-1.97657e-05
-2.0111e-05
-1.99631e-05
-1.99132e-05
-1.98697e-05
-1.9879e-05
-2.00361e-05
-2.00854e-05
-2.01029e-05
-2.00685e-05
-1.99636e-05
-1.99625e-05
-1.99334e-05
-1.9937e-05
-1.98647e-05
-1.99506e-05
-1.9913e-05
-1.96563e-05
-1.96374e-05
-1.96368e-05
-1.96467e-05
-1.96629e-05
-1.96404e-05
-1.96587e-05
-1.97091e-05
-1.96621e-05
-1.9636e-05
-1.96157e-05
-1.95757e-05
-1.95857e-05
-1.95861e-05
-1.9576e-05
-1.9769e-05
-1.96719e-05
-1.96464e-05
-1.95756e-05
-1.96041e-05
-1.96207e-05
-1.96213e-05
-1.96044e-05
-1.95758e-05
-1.98136e-05
-1.97055e-05
-1.9656e-05
-1.9662e-05
-1.95854e-05
-1.96208e-05
-1.96417e-05
-1.96418e-05
-1.9621e-05
-1.9586e-05
-1.98534e-05
-1.97063e-05
-1.96369e-05
-1.96397e-05
-1.95853e-05
-1.96209e-05
-1.96418e-05
-1.96418e-05
-1.96209e-05
-1.95859e-05
-1.98583e-05
-1.96384e-05
-1.9658e-05
-1.95753e-05
-1.96039e-05
-1.96206e-05
-1.96208e-05
-1.96042e-05
-1.95759e-05
-1.98471e-05
-1.97196e-05
-1.97086e-05
-1.97684e-05
-1.95751e-05
-1.95849e-05
-1.95854e-05
-1.95756e-05
-1.99048e-05
-1.97426e-05
-1.96897e-05
-1.96613e-05
-1.96713e-05
-1.98132e-05
-1.98526e-05
-1.98574e-05
-1.98465e-05
-1.97423e-05
-1.97533e-05
-1.97051e-05
-1.97056e-05
-1.96379e-05
-1.97192e-05
-1.96889e-05
-1.945e-05
-1.94306e-05
-1.94338e-05
-1.9438e-05
-1.94554e-05
-1.94354e-05
-1.94506e-05
-1.95034e-05
-1.94598e-05
-1.9434e-05
-1.9409e-05
-1.93646e-05
-1.9369e-05
-1.93692e-05
-1.93647e-05
-1.95643e-05
-1.94686e-05
-1.94378e-05
-1.93646e-05
-1.93742e-05
-1.93777e-05
-1.93779e-05
-1.93743e-05
-1.93645e-05
-1.9606e-05
-1.94983e-05
-1.94499e-05
-1.94548e-05
-1.93689e-05
-1.93778e-05
-1.93818e-05
-1.93818e-05
-1.93779e-05
-1.9369e-05
-1.96388e-05
-1.9498e-05
-1.94304e-05
-1.94351e-05
-1.93688e-05
-1.93778e-05
-1.93818e-05
-1.93819e-05
-1.93778e-05
-1.93689e-05
-1.96398e-05
-1.94312e-05
-1.94503e-05
-1.93645e-05
-1.93742e-05
-1.93777e-05
-1.93779e-05
-1.93742e-05
-1.93646e-05
-1.9635e-05
-1.95113e-05
-1.95029e-05
-1.9564e-05
-1.93644e-05
-1.93688e-05
-1.9369e-05
-1.93647e-05
-1.96941e-05
-1.95371e-05
-1.94833e-05
-1.94595e-05
-1.94683e-05
-1.96057e-05
-1.96383e-05
-1.96395e-05
-1.96349e-05
-1.95369e-05
-1.95504e-05
-1.94979e-05
-1.94976e-05
-1.94308e-05
-1.95111e-05
-1.94831e-05
-1.92373e-05
-1.92173e-05
-1.9223e-05
-1.92245e-05
-1.92415e-05
-1.92219e-05
-1.92368e-05
-1.92912e-05
-1.9249e-05
-1.92229e-05
-1.91963e-05
-1.91482e-05
-1.91508e-05
-1.91508e-05
-1.9148e-05
-1.93521e-05
-1.92569e-05
-1.92243e-05
-1.91481e-05
-1.91534e-05
-1.91552e-05
-1.91552e-05
-1.91532e-05
-1.91479e-05
-1.93925e-05
-1.92856e-05
-1.92372e-05
-1.92408e-05
-1.91507e-05
-1.91552e-05
-1.91568e-05
-1.91568e-05
-1.91552e-05
-1.91508e-05
-1.94221e-05
-1.92842e-05
-1.92172e-05
-1.92217e-05
-1.91509e-05
-1.91553e-05
-1.91568e-05
-1.91568e-05
-1.91553e-05
-1.91508e-05
-1.94215e-05
-1.92172e-05
-1.92367e-05
-1.9148e-05
-1.91533e-05
-1.91551e-05
-1.91552e-05
-1.91534e-05
-1.91479e-05
-1.94196e-05
-1.92978e-05
-1.92908e-05
-1.9352e-05
-1.91481e-05
-1.91506e-05
-1.91506e-05
-1.91481e-05
-1.94794e-05
-1.9325e-05
-1.92712e-05
-1.92491e-05
-1.92568e-05
-1.93925e-05
-1.94218e-05
-1.94212e-05
-1.94193e-05
-1.93245e-05
-1.93392e-05
-1.92855e-05
-1.92841e-05
-1.92171e-05
-1.92976e-05
-1.9271e-05
-1.9021e-05
-1.9001e-05
-1.90076e-05
-1.90079e-05
-1.90244e-05
-1.90052e-05
-1.90202e-05
-1.90754e-05
-1.90337e-05
-1.90076e-05
-1.89803e-05
-1.89307e-05
-1.89329e-05
-1.89329e-05
-1.89308e-05
-1.91368e-05
-1.90415e-05
-1.90079e-05
-1.89311e-05
-1.89339e-05
-1.89355e-05
-1.89355e-05
-1.89338e-05
-1.89313e-05
-1.91766e-05
-1.90695e-05
-1.9021e-05
-1.90244e-05
-1.8933e-05
-1.89352e-05
-1.89365e-05
-1.89365e-05
-1.89351e-05
-1.89324e-05
-1.92047e-05
-1.90678e-05
-1.9001e-05
-1.90052e-05
-1.89328e-05
-1.89353e-05
-1.89365e-05
-1.89365e-05
-1.89351e-05
-1.89324e-05
-1.92037e-05
-1.90005e-05
-1.90203e-05
-1.89314e-05
-1.89342e-05
-1.89354e-05
-1.89354e-05
-1.8934e-05
-1.89311e-05
-1.9203e-05
-1.90816e-05
-1.90753e-05
-1.91369e-05
-1.89311e-05
-1.89325e-05
-1.89326e-05
-1.89311e-05
-1.92634e-05
-1.91097e-05
-1.90554e-05
-1.90341e-05
-1.90415e-05
-1.91766e-05
-1.92048e-05
-1.92035e-05
-1.92026e-05
-1.91091e-05
-1.9124e-05
-1.90694e-05
-1.90677e-05
-1.90004e-05
-1.90814e-05
-1.90554e-05
-1.88036e-05
-1.87836e-05
-1.87909e-05
-1.87908e-05
-1.88071e-05
-1.87878e-05
-1.8803e-05
-1.88583e-05
-1.88169e-05
-1.87908e-05
-1.87635e-05
-1.8714e-05
-1.87145e-05
-1.87145e-05
-1.87138e-05
-1.89203e-05
-1.88248e-05
-1.87907e-05
-1.87136e-05
-1.87155e-05
-1.87161e-05
-1.87162e-05
-1.87157e-05
-1.87136e-05
-1.89598e-05
-1.88524e-05
-1.88036e-05
-1.88069e-05
-1.87145e-05
-1.87162e-05
-1.8717e-05
-1.87171e-05
-1.87164e-05
-1.87147e-05
-1.89874e-05
-1.88504e-05
-1.87836e-05
-1.87877e-05
-1.87145e-05
-1.87162e-05
-1.87173e-05
-1.87171e-05
-1.87163e-05
-1.87147e-05
-1.8986e-05
-1.87831e-05
-1.88029e-05
-1.87137e-05
-1.87156e-05
-1.87164e-05
-1.87164e-05
-1.87153e-05
-1.87135e-05
-1.89856e-05
-1.88641e-05
-1.88581e-05
-1.89202e-05
-1.87137e-05
-1.87145e-05
-1.87148e-05
-1.87139e-05
-1.90467e-05
-1.88929e-05
-1.88383e-05
-1.88173e-05
-1.88247e-05
-1.89595e-05
-1.8987e-05
-1.89856e-05
-1.89851e-05
-1.88924e-05
-1.89072e-05
-1.88522e-05
-1.88502e-05
-1.8783e-05
-1.88639e-05
-1.88383e-05
-1.85861e-05
-1.85661e-05
-1.85737e-05
-1.85733e-05
-1.85894e-05
-1.85702e-05
-1.85854e-05
-1.86409e-05
-1.85996e-05
-1.85736e-05
-1.85461e-05
-1.84962e-05
-1.84966e-05
-1.84967e-05
-1.84963e-05
-1.87031e-05
-1.86075e-05
-1.85733e-05
-1.84964e-05
-1.8497e-05
-1.84973e-05
-1.84973e-05
-1.8497e-05
-1.84959e-05
-1.87424e-05
-1.86349e-05
-1.85862e-05
-1.85894e-05
-1.84966e-05
-1.84972e-05
-1.84976e-05
-1.84976e-05
-1.84974e-05
-1.84964e-05
-1.87696e-05
-1.86328e-05
-1.8566e-05
-1.85701e-05
-1.84966e-05
-1.84974e-05
-1.84977e-05
-1.84976e-05
-1.84974e-05
-1.84964e-05
-1.87681e-05
-1.85654e-05
-1.85853e-05
-1.8496e-05
-1.84967e-05
-1.8497e-05
-1.84971e-05
-1.84968e-05
-1.84962e-05
-1.87681e-05
-1.86465e-05
-1.86407e-05
-1.87029e-05
-1.84963e-05
-1.84966e-05
-1.84966e-05
-1.84963e-05
-1.88295e-05
-1.86755e-05
-1.86209e-05
-1.86e-05
-1.86074e-05
-1.87423e-05
-1.87694e-05
-1.87679e-05
-1.87677e-05
-1.86751e-05
-1.869e-05
-1.86349e-05
-1.86327e-05
-1.85654e-05
-1.86465e-05
-1.8621e-05
-1.83683e-05
-1.83482e-05
-1.8356e-05
-1.83555e-05
-1.83716e-05
-1.83523e-05
-1.83676e-05
-1.84232e-05
-1.83819e-05
-1.83559e-05
-1.83284e-05
-1.82785e-05
-1.82787e-05
-1.82786e-05
-1.82784e-05
-1.84853e-05
-1.83897e-05
-1.83555e-05
-1.82784e-05
-1.82787e-05
-1.82789e-05
-1.8279e-05
-1.82787e-05
-1.82783e-05
-1.85246e-05
-1.84171e-05
-1.83684e-05
-1.83716e-05
-1.82787e-05
-1.82791e-05
-1.82793e-05
-1.82794e-05
-1.8279e-05
-1.82786e-05
-1.85519e-05
-1.84151e-05
-1.83482e-05
-1.83523e-05
-1.82787e-05
-1.8279e-05
-1.82793e-05
-1.82794e-05
-1.82788e-05
-1.82786e-05
-1.85503e-05
-1.83475e-05
-1.83676e-05
-1.82785e-05
-1.82787e-05
-1.8279e-05
-1.8279e-05
-1.82787e-05
-1.82785e-05
-1.85503e-05
-1.84288e-05
-1.84231e-05
-1.84852e-05
-1.82783e-05
-1.82785e-05
-1.82785e-05
-1.82783e-05
-1.86117e-05
-1.84578e-05
-1.84032e-05
-1.83823e-05
-1.83897e-05
-1.85244e-05
-1.85515e-05
-1.85499e-05
-1.85498e-05
-1.84573e-05
-1.84723e-05
-1.84171e-05
-1.84149e-05
-1.83475e-05
-1.84287e-05
-1.84032e-05
-1.81503e-05
-1.81302e-05
-1.81382e-05
-1.81376e-05
-1.81536e-05
-1.81343e-05
-1.81497e-05
-1.82053e-05
-1.81641e-05
-1.8138e-05
-1.81105e-05
-1.80605e-05
-1.80606e-05
-1.80606e-05
-1.80605e-05
-1.82675e-05
-1.81719e-05
-1.81375e-05
-1.80605e-05
-1.80606e-05
-1.80608e-05
-1.80608e-05
-1.80606e-05
-1.80605e-05
-1.83067e-05
-1.81993e-05
-1.81504e-05
-1.81535e-05
-1.80606e-05
-1.80608e-05
-1.8061e-05
-1.8061e-05
-1.80608e-05
-1.80606e-05
-1.83338e-05
-1.81972e-05
-1.81302e-05
-1.81343e-05
-1.80606e-05
-1.80608e-05
-1.8061e-05
-1.8061e-05
-1.80608e-05
-1.80606e-05
-1.83322e-05
-1.81296e-05
-1.81496e-05
-1.80605e-05
-1.80606e-05
-1.80608e-05
-1.80608e-05
-1.80606e-05
-1.80605e-05
-1.83323e-05
-1.82109e-05
-1.82052e-05
-1.82673e-05
-1.80605e-05
-1.80606e-05
-1.80606e-05
-1.80604e-05
-1.83937e-05
-1.82399e-05
-1.81853e-05
-1.81644e-05
-1.81719e-05
-1.83066e-05
-1.83334e-05
-1.83318e-05
-1.83318e-05
-1.82395e-05
-1.82544e-05
-1.81992e-05
-1.8197e-05
-1.81296e-05
-1.82107e-05
-1.81853e-05
-1.79324e-05
-1.79123e-05
-1.79205e-05
-1.79196e-05
-1.79357e-05
-1.79164e-05
-1.79317e-05
-1.79874e-05
-1.79461e-05
-1.79201e-05
-1.78925e-05
-1.78425e-05
-1.78425e-05
-1.78425e-05
-1.78425e-05
-1.80496e-05
-1.7954e-05
-1.79196e-05
-1.78425e-05
-1.78426e-05
-1.78427e-05
-1.78427e-05
-1.78426e-05
-1.78425e-05
-1.80888e-05
-1.79814e-05
-1.79325e-05
-1.79357e-05
-1.78425e-05
-1.78427e-05
-1.78428e-05
-1.78428e-05
-1.78427e-05
-1.78425e-05
-1.8116e-05
-1.79793e-05
-1.79123e-05
-1.79164e-05
-1.78425e-05
-1.78427e-05
-1.78428e-05
-1.78428e-05
-1.78427e-05
-1.78425e-05
-1.81144e-05
-1.79117e-05
-1.79317e-05
-1.78425e-05
-1.78426e-05
-1.78427e-05
-1.78427e-05
-1.78426e-05
-1.78425e-05
-1.81145e-05
-1.7993e-05
-1.79873e-05
-1.80495e-05
-1.78425e-05
-1.78425e-05
-1.78425e-05
-1.78425e-05
-1.81759e-05
-1.8022e-05
-1.79674e-05
-1.79466e-05
-1.79539e-05
-1.80887e-05
-1.81155e-05
-1.81139e-05
-1.81139e-05
-1.80216e-05
-1.80366e-05
-1.79813e-05
-1.79791e-05
-1.79117e-05
-1.79929e-05
-1.79675e-05
-1.77144e-05
-1.76944e-05
-1.77025e-05
-1.77017e-05
-1.77178e-05
-1.76985e-05
-1.77138e-05
-1.77694e-05
-1.77281e-05
-1.77022e-05
-1.76746e-05
-1.76246e-05
-1.76246e-05
-1.76246e-05
-1.76246e-05
-1.78317e-05
-1.77361e-05
-1.77017e-05
-1.76246e-05
-1.76246e-05
-1.76247e-05
-1.76247e-05
-1.76246e-05
-1.76246e-05
-1.78709e-05
-1.77634e-05
-1.77145e-05
-1.77177e-05
-1.76246e-05
-1.76247e-05
-1.76247e-05
-1.76247e-05
-1.76247e-05
-1.76246e-05
-1.7898e-05
-1.77613e-05
-1.76944e-05
-1.76985e-05
-1.76246e-05
-1.76247e-05
-1.76247e-05
-1.76247e-05
-1.76247e-05
-1.76246e-05
-1.78964e-05
-1.76938e-05
-1.77137e-05
-1.76246e-05
-1.76246e-05
-1.76247e-05
-1.76247e-05
-1.76246e-05
-1.76246e-05
-1.78965e-05
-1.77751e-05
-1.77693e-05
-1.78315e-05
-1.76246e-05
-1.76246e-05
-1.76246e-05
-1.76246e-05
-1.79579e-05
-1.78041e-05
-1.77495e-05
-1.77286e-05
-1.7736e-05
-1.78708e-05
-1.78976e-05
-1.78959e-05
-1.7896e-05
-1.78037e-05
-1.78186e-05
-1.77633e-05
-1.77611e-05
-1.76937e-05
-1.77749e-05
-1.77495e-05
-1.74965e-05
-1.74764e-05
-1.74846e-05
-1.74838e-05
-1.74998e-05
-1.74805e-05
-1.74958e-05
-1.75515e-05
-1.75102e-05
-1.74842e-05
-1.74567e-05
-1.74067e-05
-1.74067e-05
-1.74067e-05
-1.74067e-05
-1.76138e-05
-1.75182e-05
-1.74837e-05
-1.74067e-05
-1.74067e-05
-1.74067e-05
-1.74067e-05
-1.74067e-05
-1.74067e-05
-1.7653e-05
-1.75455e-05
-1.74966e-05
-1.74998e-05
-1.74067e-05
-1.74067e-05
-1.74067e-05
-1.74067e-05
-1.74067e-05
-1.74067e-05
-1.76801e-05
-1.75434e-05
-1.74764e-05
-1.74805e-05
-1.74067e-05
-1.74067e-05
-1.74067e-05
-1.74067e-05
-1.74067e-05
-1.74067e-05
-1.76785e-05
-1.74758e-05
-1.74958e-05
-1.74067e-05
-1.74067e-05
-1.74067e-05
-1.74067e-05
-1.74067e-05
-1.74067e-05
-1.76786e-05
-1.75571e-05
-1.75514e-05
-1.76136e-05
-1.74067e-05
-1.74067e-05
-1.74067e-05
-1.74067e-05
-1.774e-05
-1.75862e-05
-1.75315e-05
-1.75107e-05
-1.75181e-05
-1.76528e-05
-1.76796e-05
-1.7678e-05
-1.7678e-05
-1.75858e-05
-1.76007e-05
-1.75454e-05
-1.75432e-05
-1.74758e-05
-1.75569e-05
-1.75316e-05
-1.72786e-05
-1.72585e-05
-1.72667e-05
-1.72658e-05
-1.72819e-05
-1.72626e-05
-1.7278e-05
-1.73338e-05
-1.72922e-05
-1.72663e-05
-1.72388e-05
-1.71887e-05
-1.71887e-05
-1.71887e-05
-1.71887e-05
-1.73959e-05
-1.73003e-05
-1.72658e-05
-1.71887e-05
-1.71887e-05
-1.71887e-05
-1.71887e-05
-1.71887e-05
-1.71887e-05
-1.74351e-05
-1.73276e-05
-1.72787e-05
-1.72818e-05
-1.71887e-05
-1.71887e-05
-1.71887e-05
-1.71887e-05
-1.71887e-05
-1.71887e-05
-1.74621e-05
-1.73254e-05
-1.72585e-05
-1.72626e-05
-1.71887e-05
-1.71887e-05
-1.71887e-05
-1.71887e-05
-1.71887e-05
-1.71887e-05
-1.74606e-05
-1.72579e-05
-1.72779e-05
-1.71887e-05
-1.71887e-05
-1.71887e-05
-1.71887e-05
-1.71887e-05
-1.71887e-05
-1.74607e-05
-1.73392e-05
-1.73335e-05
-1.73957e-05
-1.71887e-05
-1.71887e-05
-1.71887e-05
-1.71887e-05
-1.75221e-05
-1.73683e-05
-1.73136e-05
-1.72927e-05
-1.73001e-05
-1.74349e-05
-1.74617e-05
-1.746e-05
-1.74601e-05
-1.73678e-05
-1.73828e-05
-1.73274e-05
-1.73253e-05
-1.72578e-05
-1.7339e-05
-1.73136e-05
-1.70606e-05
-1.70405e-05
-1.70487e-05
-1.70478e-05
-1.70639e-05
-1.70446e-05
-1.706e-05
-1.71156e-05
-1.70743e-05
-1.70483e-05
-1.70208e-05
-1.69707e-05
-1.69707e-05
-1.69707e-05
-1.69707e-05
-1.71779e-05
-1.70823e-05
-1.70479e-05
-1.69707e-05
-1.69707e-05
-1.69707e-05
-1.69707e-05
-1.69707e-05
-1.69708e-05
-1.72171e-05
-1.71096e-05
-1.70607e-05
-1.70639e-05
-1.69708e-05
-1.69707e-05
-1.69707e-05
-1.69707e-05
-1.69707e-05
-1.69708e-05
-1.72442e-05
-1.71075e-05
-1.70405e-05
-1.70446e-05
-1.69708e-05
-1.69707e-05
-1.69707e-05
-1.69707e-05
-1.69707e-05
-1.69707e-05
-1.72426e-05
-1.704e-05
-1.70599e-05
-1.69708e-05
-1.69707e-05
-1.69707e-05
-1.69707e-05
-1.69707e-05
-1.69707e-05
-1.72427e-05
-1.71212e-05
-1.71155e-05
-1.71777e-05
-1.69707e-05
-1.69707e-05
-1.69707e-05
-1.69707e-05
-1.73041e-05
-1.71503e-05
-1.70957e-05
-1.70748e-05
-1.70822e-05
-1.72169e-05
-1.72437e-05
-1.72421e-05
-1.72421e-05
-1.71499e-05
-1.71648e-05
-1.71095e-05
-1.71073e-05
-1.70399e-05
-1.71211e-05
-1.70957e-05
-1.68427e-05
-1.68225e-05
-1.68307e-05
-1.68299e-05
-1.6846e-05
-1.68266e-05
-1.6842e-05
-1.68977e-05
-1.68564e-05
-1.68304e-05
-1.68028e-05
-1.67528e-05
-1.67528e-05
-1.67528e-05
-1.67528e-05
-1.69599e-05
-1.68643e-05
-1.68299e-05
-1.67528e-05
-1.67528e-05
-1.67528e-05
-1.67528e-05
-1.67528e-05
-1.67528e-05
-1.69991e-05
-1.68916e-05
-1.68427e-05
-1.68459e-05
-1.67528e-05
-1.67528e-05
-1.67528e-05
-1.67528e-05
-1.67528e-05
-1.67528e-05
-1.70262e-05
-1.68895e-05
-1.68226e-05
-1.68266e-05
-1.67528e-05
-1.67528e-05
-1.67528e-05
-1.67528e-05
-1.67528e-05
-1.67528e-05
-1.70246e-05
-1.6822e-05
-1.68419e-05
-1.67528e-05
-1.67528e-05
-1.67528e-05
-1.67528e-05
-1.67528e-05
-1.67528e-05
-1.70247e-05
-1.69032e-05
-1.68975e-05
-1.69597e-05
-1.67528e-05
-1.67528e-05
-1.67528e-05
-1.67528e-05
-1.70861e-05
-1.69323e-05
-1.68777e-05
-1.68568e-05
-1.68642e-05
-1.69989e-05
-1.70257e-05
-1.70241e-05
-1.70242e-05
-1.69319e-05
-1.69468e-05
-1.68915e-05
-1.68893e-05
-1.68219e-05
-1.69031e-05
-1.68777e-05
-1.66247e-05
-1.66046e-05
-1.66128e-05
-1.66119e-05
-1.6628e-05
-1.66087e-05
-1.6624e-05
-1.66797e-05
-1.66383e-05
-1.66124e-05
-1.65848e-05
-1.65348e-05
-1.65348e-05
-1.65348e-05
-1.65348e-05
-1.67419e-05
-1.66463e-05
-1.66119e-05
-1.65348e-05
-1.65348e-05
-1.65348e-05
-1.65348e-05
-1.65348e-05
-1.65348e-05
-1.67811e-05
-1.66736e-05
-1.66248e-05
-1.66279e-05
-1.65348e-05
-1.65348e-05
-1.65348e-05
-1.65348e-05
-1.65348e-05
-1.65348e-05
-1.68082e-05
-1.66715e-05
-1.66046e-05
-1.66087e-05
-1.65348e-05
-1.65348e-05
-1.65348e-05
-1.65348e-05
-1.65348e-05
-1.65348e-05
-1.68066e-05
-1.6604e-05
-1.6624e-05
-1.65348e-05
-1.65348e-05
-1.65348e-05
-1.65348e-05
-1.65348e-05
-1.65348e-05
-1.68067e-05
-1.66853e-05
-1.66795e-05
-1.67417e-05
-1.65348e-05
-1.65348e-05
-1.65348e-05
-1.65348e-05
-1.68682e-05
-1.67143e-05
-1.66597e-05
-1.66388e-05
-1.66462e-05
-1.6781e-05
-1.68078e-05
-1.68062e-05
-1.68062e-05
-1.67139e-05
-1.67288e-05
-1.66735e-05
-1.66713e-05
-1.66039e-05
-1.66851e-05
-1.66597e-05
-1.64068e-05
-1.63866e-05
-1.63948e-05
-1.6394e-05
-1.64101e-05
-1.63907e-05
-1.64061e-05
-1.64618e-05
-1.64203e-05
-1.63945e-05
-1.63669e-05
-1.63169e-05
-1.63169e-05
-1.63169e-05
-1.63169e-05
-1.65239e-05
-1.64283e-05
-1.6394e-05
-1.63169e-05
-1.63169e-05
-1.63169e-05
-1.63169e-05
-1.63169e-05
-1.63169e-05
-1.65632e-05
-1.64557e-05
-1.64068e-05
-1.641e-05
-1.63169e-05
-1.63169e-05
-1.63169e-05
-1.63169e-05
-1.63169e-05
-1.63169e-05
-1.65903e-05
-1.64536e-05
-1.63867e-05
-1.63907e-05
-1.63169e-05
-1.63169e-05
-1.63169e-05
-1.63169e-05
-1.63169e-05
-1.63169e-05
-1.65887e-05
-1.6386e-05
-1.6406e-05
-1.63169e-05
-1.63169e-05
-1.63169e-05
-1.63169e-05
-1.63169e-05
-1.63169e-05
-1.65888e-05
-1.64673e-05
-1.64616e-05
-1.65238e-05
-1.63169e-05
-1.63169e-05
-1.63169e-05
-1.63169e-05
-1.66502e-05
-1.64964e-05
-1.64418e-05
-1.64209e-05
-1.64283e-05
-1.6563e-05
-1.65898e-05
-1.65882e-05
-1.65882e-05
-1.6496e-05
-1.65109e-05
-1.64556e-05
-1.64534e-05
-1.6386e-05
-1.64671e-05
-1.64418e-05
-1.61888e-05
-1.61687e-05
-1.61769e-05
-1.6176e-05
-1.61921e-05
-1.61728e-05
-1.61881e-05
-1.62438e-05
-1.62024e-05
-1.61765e-05
-1.61489e-05
-1.60989e-05
-1.60989e-05
-1.60989e-05
-1.60989e-05
-1.6306e-05
-1.62104e-05
-1.6176e-05
-1.60989e-05
-1.60989e-05
-1.60989e-05
-1.60989e-05
-1.60989e-05
-1.60989e-05
-1.63452e-05
-1.62377e-05
-1.61889e-05
-1.6192e-05
-1.60989e-05
-1.60989e-05
-1.60989e-05
-1.60989e-05
-1.60989e-05
-1.60989e-05
-1.63723e-05
-1.62356e-05
-1.61687e-05
-1.61728e-05
-1.60989e-05
-1.60989e-05
-1.60989e-05
-1.60989e-05
-1.60989e-05
-1.60989e-05
-1.63707e-05
-1.61681e-05
-1.61881e-05
-1.60989e-05
-1.60989e-05
-1.60989e-05
-1.60989e-05
-1.60989e-05
-1.60989e-05
-1.63708e-05
-1.62494e-05
-1.62437e-05
-1.63058e-05
-1.60989e-05
-1.60989e-05
-1.60989e-05
-1.60989e-05
-1.64323e-05
-1.62784e-05
-1.62238e-05
-1.62029e-05
-1.62103e-05
-1.63451e-05
-1.63719e-05
-1.63703e-05
-1.63703e-05
-1.6278e-05
-1.62929e-05
-1.62377e-05
-1.62355e-05
-1.6168e-05
-1.62492e-05
-1.62238e-05
-1.59708e-05
-1.59507e-05
-1.59589e-05
-1.5958e-05
-1.59741e-05
-1.59548e-05
-1.59702e-05
-1.60258e-05
-1.59844e-05
-1.59585e-05
-1.5931e-05
-1.5881e-05
-1.5881e-05
-1.5881e-05
-1.5881e-05
-1.6088e-05
-1.59924e-05
-1.5958e-05
-1.5881e-05
-1.5881e-05
-1.5881e-05
-1.5881e-05
-1.5881e-05
-1.5881e-05
-1.61272e-05
-1.60197e-05
-1.59709e-05
-1.5974e-05
-1.5881e-05
-1.5881e-05
-1.5881e-05
-1.5881e-05
-1.5881e-05
-1.5881e-05
-1.61543e-05
-1.60176e-05
-1.59507e-05
-1.59548e-05
-1.5881e-05
-1.5881e-05
-1.5881e-05
-1.5881e-05
-1.5881e-05
-1.5881e-05
-1.61528e-05
-1.59501e-05
-1.59701e-05
-1.5881e-05
-1.5881e-05
-1.5881e-05
-1.5881e-05
-1.5881e-05
-1.5881e-05
-1.61529e-05
-1.60314e-05
-1.60257e-05
-1.60879e-05
-1.5881e-05
-1.5881e-05
-1.5881e-05
-1.5881e-05
-1.62143e-05
-1.60605e-05
-1.60058e-05
-1.59849e-05
-1.59924e-05
-1.61271e-05
-1.6154e-05
-1.61524e-05
-1.61524e-05
-1.60601e-05
-1.6075e-05
-1.60197e-05
-1.60175e-05
-1.595e-05
-1.60312e-05
-1.60058e-05
-1.57528e-05
-1.57327e-05
-1.57409e-05
-1.574e-05
-1.57562e-05
-1.57369e-05
-1.57522e-05
-1.58078e-05
-1.57664e-05
-1.57406e-05
-1.5713e-05
-1.5663e-05
-1.5663e-05
-1.5663e-05
-1.5663e-05
-1.587e-05
-1.57745e-05
-1.57401e-05
-1.5663e-05
-1.5663e-05
-1.5663e-05
-1.5663e-05
-1.5663e-05
-1.5663e-05
-1.59093e-05
-1.58018e-05
-1.57529e-05
-1.57561e-05
-1.5663e-05
-1.5663e-05
-1.5663e-05
-1.5663e-05
-1.5663e-05
-1.5663e-05
-1.59364e-05
-1.57997e-05
-1.57327e-05
-1.57368e-05
-1.5663e-05
-1.5663e-05
-1.5663e-05
-1.5663e-05
-1.5663e-05
-1.5663e-05
-1.59348e-05
-1.57321e-05
-1.57521e-05
-1.5663e-05
-1.5663e-05
-1.5663e-05
-1.5663e-05
-1.5663e-05
-1.5663e-05
-1.59349e-05
-1.58134e-05
-1.58077e-05
-1.58699e-05
-1.5663e-05
-1.5663e-05
-1.5663e-05
-1.5663e-05
-1.59963e-05
-1.58425e-05
-1.57879e-05
-1.5767e-05
-1.57744e-05
-1.59092e-05
-1.5936e-05
-1.59344e-05
-1.59344e-05
-1.58421e-05
-1.5857e-05
-1.58017e-05
-1.57995e-05
-1.57321e-05
-1.58132e-05
-1.57878e-05
-1.55349e-05
-1.55148e-05
-1.5523e-05
-1.55221e-05
-1.55382e-05
-1.55189e-05
-1.55342e-05
-1.55899e-05
-1.55485e-05
-1.55226e-05
-1.54951e-05
-1.5445e-05
-1.5445e-05
-1.5445e-05
-1.5445e-05
-1.56521e-05
-1.55565e-05
-1.55221e-05
-1.5445e-05
-1.5445e-05
-1.5445e-05
-1.5445e-05
-1.5445e-05
-1.5445e-05
-1.56913e-05
-1.55839e-05
-1.5535e-05
-1.55381e-05
-1.5445e-05
-1.5445e-05
-1.5445e-05
-1.5445e-05
-1.5445e-05
-1.5445e-05
-1.57184e-05
-1.55817e-05
-1.55148e-05
-1.55189e-05
-1.5445e-05
-1.5445e-05
-1.5445e-05
-1.5445e-05
-1.5445e-05
-1.5445e-05
-1.57168e-05
-1.55142e-05
-1.55342e-05
-1.5445e-05
-1.5445e-05
-1.5445e-05
-1.5445e-05
-1.5445e-05
-1.5445e-05
-1.57169e-05
-1.55955e-05
-1.55898e-05
-1.56519e-05
-1.5445e-05
-1.5445e-05
-1.5445e-05
-1.5445e-05
-1.57784e-05
-1.56245e-05
-1.55699e-05
-1.5549e-05
-1.55564e-05
-1.56912e-05
-1.57181e-05
-1.57165e-05
-1.57165e-05
-1.56241e-05
-1.5639e-05
-1.55838e-05
-1.55816e-05
-1.55141e-05
-1.55953e-05
-1.55699e-05
-1.53169e-05
-1.52968e-05
-1.5305e-05
-1.53041e-05
-1.53202e-05
-1.53009e-05
-1.53163e-05
-1.53719e-05
-1.53305e-05
-1.53046e-05
-1.52771e-05
-1.5227e-05
-1.5227e-05
-1.5227e-05
-1.5227e-05
-1.54341e-05
-1.53385e-05
-1.53041e-05
-1.5227e-05
-1.5227e-05
-1.5227e-05
-1.5227e-05
-1.5227e-05
-1.5227e-05
-1.54733e-05
-1.53659e-05
-1.5317e-05
-1.53201e-05
-1.5227e-05
-1.5227e-05
-1.5227e-05
-1.5227e-05
-1.5227e-05
-1.5227e-05
-1.55004e-05
-1.53637e-05
-1.52968e-05
-1.53009e-05
-1.5227e-05
-1.5227e-05
-1.5227e-05
-1.5227e-05
-1.5227e-05
-1.5227e-05
-1.54989e-05
-1.52962e-05
-1.53162e-05
-1.5227e-05
-1.5227e-05
-1.5227e-05
-1.5227e-05
-1.5227e-05
-1.5227e-05
-1.5499e-05
-1.53775e-05
-1.53718e-05
-1.5434e-05
-1.5227e-05
-1.5227e-05
-1.5227e-05
-1.5227e-05
-1.55604e-05
-1.54065e-05
-1.53519e-05
-1.53311e-05
-1.53385e-05
-1.54732e-05
-1.55001e-05
-1.54985e-05
-1.54985e-05
-1.54061e-05
-1.54211e-05
-1.53658e-05
-1.53636e-05
-1.52961e-05
-1.53773e-05
-1.53519e-05
-1.50989e-05
-1.50789e-05
-1.5087e-05
-1.50861e-05
-1.51022e-05
-1.5083e-05
-1.50983e-05
-1.5154e-05
-1.51125e-05
-1.50867e-05
-1.50591e-05
-1.50091e-05
-1.50091e-05
-1.50091e-05
-1.50091e-05
-1.52161e-05
-1.51206e-05
-1.50862e-05
-1.50091e-05
-1.50091e-05
-1.50091e-05
-1.50091e-05
-1.50091e-05
-1.50091e-05
-1.52554e-05
-1.51479e-05
-1.5099e-05
-1.51022e-05
-1.50091e-05
-1.50091e-05
-1.50091e-05
-1.50091e-05
-1.50091e-05
-1.50091e-05
-1.52825e-05
-1.51458e-05
-1.50789e-05
-1.50829e-05
-1.50091e-05
-1.50091e-05
-1.50091e-05
-1.50091e-05
-1.50091e-05
-1.50091e-05
-1.52809e-05
-1.50783e-05
-1.50982e-05
-1.50091e-05
-1.50091e-05
-1.50091e-05
-1.50091e-05
-1.50091e-05
-1.50091e-05
-1.5281e-05
-1.51595e-05
-1.51538e-05
-1.5216e-05
-1.50091e-05
-1.50091e-05
-1.50091e-05
-1.50091e-05
-1.53424e-05
-1.51886e-05
-1.5134e-05
-1.51131e-05
-1.51205e-05
-1.52553e-05
-1.52821e-05
-1.52805e-05
-1.52805e-05
-1.51882e-05
-1.52031e-05
-1.51478e-05
-1.51456e-05
-1.50782e-05
-1.51593e-05
-1.5134e-05
-1.4881e-05
-1.48609e-05
-1.48691e-05
-1.48681e-05
-1.48843e-05
-1.4865e-05
-1.48804e-05
-1.4936e-05
-1.48946e-05
-1.48687e-05
-1.48412e-05
-1.47911e-05
-1.47911e-05
-1.47911e-05
-1.47911e-05
-1.49982e-05
-1.49026e-05
-1.48682e-05
-1.47911e-05
-1.47911e-05
-1.47911e-05
-1.47911e-05
-1.47911e-05
-1.47911e-05
-1.50374e-05
-1.49299e-05
-1.48811e-05
-1.48842e-05
-1.47911e-05
-1.47911e-05
-1.47911e-05
-1.47911e-05
-1.47911e-05
-1.47911e-05
-1.50645e-05
-1.49278e-05
-1.48609e-05
-1.4865e-05
-1.47911e-05
-1.47911e-05
-1.47911e-05
-1.47911e-05
-1.47911e-05
-1.47911e-05
-1.5063e-05
-1.48603e-05
-1.48803e-05
-1.47911e-05
-1.47911e-05
-1.47911e-05
-1.47911e-05
-1.47911e-05
-1.47911e-05
-1.50631e-05
-1.49416e-05
-1.49359e-05
-1.49981e-05
-1.47911e-05
-1.47911e-05
-1.47911e-05
-1.47911e-05
-1.51245e-05
-1.49706e-05
-1.4916e-05
-1.48951e-05
-1.49025e-05
-1.50373e-05
-1.50642e-05
-1.50626e-05
-1.50626e-05
-1.49702e-05
-1.49852e-05
-1.49299e-05
-1.49277e-05
-1.48602e-05
-1.49414e-05
-1.4916e-05
-1.4663e-05
-1.46429e-05
-1.46512e-05
-1.46501e-05
-1.46663e-05
-1.4647e-05
-1.46624e-05
-1.47181e-05
-1.46766e-05
-1.46507e-05
-1.46232e-05
-1.45732e-05
-1.45732e-05
-1.45732e-05
-1.45732e-05
-1.47802e-05
-1.46847e-05
-1.46503e-05
-1.45732e-05
-1.45732e-05
-1.45732e-05
-1.45732e-05
-1.45732e-05
-1.45732e-05
-1.48194e-05
-1.4712e-05
-1.46631e-05
-1.46663e-05
-1.45732e-05
-1.45731e-05
-1.45731e-05
-1.45731e-05
-1.45731e-05
-1.45732e-05
-1.48465e-05
-1.47099e-05
-1.46429e-05
-1.4647e-05
-1.45732e-05
-1.45731e-05
-1.45731e-05
-1.45731e-05
-1.45731e-05
-1.45731e-05
-1.4845e-05
-1.46423e-05
-1.46623e-05
-1.45731e-05
-1.45731e-05
-1.45731e-05
-1.45731e-05
-1.45731e-05
-1.45732e-05
-1.48451e-05
-1.47236e-05
-1.47179e-05
-1.47801e-05
-1.45731e-05
-1.45731e-05
-1.45731e-05
-1.45731e-05
-1.49065e-05
-1.47527e-05
-1.46981e-05
-1.46772e-05
-1.46846e-05
-1.48193e-05
-1.48462e-05
-1.48446e-05
-1.48446e-05
-1.47523e-05
-1.47672e-05
-1.47119e-05
-1.47097e-05
-1.46422e-05
-1.47234e-05
-1.4698e-05
-1.4445e-05
-1.44249e-05
-1.44334e-05
-1.44322e-05
-1.44483e-05
-1.44291e-05
-1.44444e-05
-1.45001e-05
-1.44587e-05
-1.44328e-05
-1.44053e-05
-1.43552e-05
-1.43552e-05
-1.43552e-05
-1.43552e-05
-1.45622e-05
-1.44667e-05
-1.44323e-05
-1.43552e-05
-1.43552e-05
-1.43552e-05
-1.43552e-05
-1.43552e-05
-1.43552e-05
-1.46015e-05
-1.4494e-05
-1.44451e-05
-1.44483e-05
-1.43552e-05
-1.43552e-05
-1.43552e-05
-1.43552e-05
-1.43552e-05
-1.43552e-05
-1.46286e-05
-1.44919e-05
-1.4425e-05
-1.4429e-05
-1.43552e-05
-1.43552e-05
-1.43552e-05
-1.43552e-05
-1.43552e-05
-1.43552e-05
-1.4627e-05
-1.44244e-05
-1.44443e-05
-1.43552e-05
-1.43552e-05
-1.43552e-05
-1.43552e-05
-1.43552e-05
-1.43552e-05
-1.46271e-05
-1.45057e-05
-1.44999e-05
-1.45621e-05
-1.43552e-05
-1.43552e-05
-1.43552e-05
-1.43552e-05
-1.46886e-05
-1.45347e-05
-1.44801e-05
-1.44592e-05
-1.44666e-05
-1.46013e-05
-1.46282e-05
-1.46266e-05
-1.46266e-05
-1.45343e-05
-1.45492e-05
-1.44939e-05
-1.44917e-05
-1.44243e-05
-1.45055e-05
-1.44801e-05
-1.42271e-05
-1.4207e-05
-1.42154e-05
-1.42142e-05
-1.42304e-05
-1.42111e-05
-1.42265e-05
-1.42821e-05
-1.42407e-05
-1.42149e-05
-1.41873e-05
-1.41373e-05
-1.41373e-05
-1.41373e-05
-1.41373e-05
-1.43442e-05
-1.42487e-05
-1.42143e-05
-1.41373e-05
-1.41373e-05
-1.41373e-05
-1.41373e-05
-1.41373e-05
-1.41373e-05
-1.43835e-05
-1.42761e-05
-1.42272e-05
-1.42303e-05
-1.41373e-05
-1.41373e-05
-1.41373e-05
-1.41373e-05
-1.41373e-05
-1.41373e-05
-1.44106e-05
-1.42739e-05
-1.4207e-05
-1.42111e-05
-1.41373e-05
-1.41373e-05
-1.41373e-05
-1.41373e-05
-1.41373e-05
-1.41373e-05
-1.44091e-05
-1.42064e-05
-1.42264e-05
-1.41373e-05
-1.41373e-05
-1.41373e-05
-1.41373e-05
-1.41373e-05
-1.41373e-05
-1.44092e-05
-1.42877e-05
-1.4282e-05
-1.43442e-05
-1.41373e-05
-1.41373e-05
-1.41373e-05
-1.41373e-05
-1.44706e-05
-1.43168e-05
-1.42621e-05
-1.42413e-05
-1.42487e-05
-1.43834e-05
-1.44103e-05
-1.44087e-05
-1.44087e-05
-1.43164e-05
-1.43313e-05
-1.4276e-05
-1.42738e-05
-1.42063e-05
-1.42875e-05
-1.42621e-05
-1.40091e-05
-1.39891e-05
-1.39974e-05
-1.39963e-05
-1.40125e-05
-1.39932e-05
-1.40086e-05
-1.40641e-05
-1.40228e-05
-1.39969e-05
-1.39694e-05
-1.39193e-05
-1.39193e-05
-1.39193e-05
-1.39193e-05
-1.41263e-05
-1.40308e-05
-1.39964e-05
-1.39193e-05
-1.39193e-05
-1.39193e-05
-1.39193e-05
-1.39193e-05
-1.39193e-05
-1.41656e-05
-1.40581e-05
-1.40092e-05
-1.40124e-05
-1.39193e-05
-1.39193e-05
-1.39193e-05
-1.39193e-05
-1.39193e-05