/*--------------------------------*- C++ -*----------------------------------*\
| =========                 |                                                 |
| \\      /  F ield         | OpenFOAM: The Open Source CFD Toolbox           |
|  \\    /   O peration     | Version:  v2012                                 |
|   \\  /    A nd           | Website:  www.openfoam.com                      |
|    \\/     M anipulation  |                                                 |
\*---------------------------------------------------------------------------*/
FoamFile
{
    version     2.0;
    format      ascii;
    class       volScalarField;
    location    "0.415";
    object      p;
}
// * * * * * * * * * * * * * * * * * * * * * * * * * * * * * * * * * * * * * //

dimensions      [0 2 -2 0 0 0 0];


internalField   nonuniform List<scalar> 
189320
(
8.79462e-07
8.7878e-07
8.73346e-07
8.73093e-07
8.72147e-07
8.71512e-07
8.72968e-07
8.74371e-07
8.7076e-07
8.73333e-07
8.70855e-07
8.71888e-07
8.71289e-07
8.71173e-07
8.71537e-07
8.715e-07
8.72051e-07
8.73086e-07
8.71873e-07
8.70991e-07
8.70619e-07
8.70544e-07
8.70802e-07
8.71316e-07
8.7094e-07
8.74792e-07
8.79317e-07
8.72077e-07
8.71277e-07
8.70614e-07
8.70284e-07
8.7022e-07
8.70421e-07
8.70919e-07
8.71651e-07
8.73631e-07
8.78699e-07
8.7149e-07
8.7116e-07
8.7054e-07
8.7022e-07
8.70156e-07
8.70344e-07
8.70809e-07
8.71709e-07
8.71792e-07
8.72954e-07
8.71529e-07
8.708e-07
8.70423e-07
8.70346e-07
8.70584e-07
8.71103e-07
8.71451e-07
8.82195e-07
8.7436e-07
8.71497e-07
8.7132e-07
8.70928e-07
8.70818e-07
8.71107e-07
8.71607e-07
8.70825e-07
8.74259e-07
8.70757e-07
8.72056e-07
8.70956e-07
8.71672e-07
8.71729e-07
8.71461e-07
8.70834e-07
8.70173e-07
8.74814e-07
8.73661e-07
8.71827e-07
8.82214e-07
8.74272e-07
8.61177e-07
8.60944e-07
8.62184e-07
8.59802e-07
8.59963e-07
8.59685e-07
8.59659e-07
8.6076e-07
8.6128e-07
8.62186e-07
8.60636e-07
8.54652e-07
8.5468e-07
8.54682e-07
8.54645e-07
8.57239e-07
8.57834e-07
8.59796e-07
8.54646e-07
8.54232e-07
8.5474e-07
8.54733e-07
8.54235e-07
8.54659e-07
8.55418e-07
8.58612e-07
8.6117e-07
8.59964e-07
8.54677e-07
8.54729e-07
8.54938e-07
8.54935e-07
8.54737e-07
8.54677e-07
8.55057e-07
8.58306e-07
8.60939e-07
8.59685e-07
8.5468e-07
8.5473e-07
8.54935e-07
8.54934e-07
8.5474e-07
8.54682e-07
8.55107e-07
8.57697e-07
8.59658e-07
8.54642e-07
8.54231e-07
8.54735e-07
8.54727e-07
8.54236e-07
8.54653e-07
8.55093e-07
8.56379e-07
8.6076e-07
8.57245e-07
8.54658e-07
8.54679e-07
8.54678e-07
8.54648e-07
8.52663e-07
8.56416e-07
8.59704e-07
8.61279e-07
8.57833e-07
8.55419e-07
8.55056e-07
8.55106e-07
8.55091e-07
8.56403e-07
8.57102e-07
8.58614e-07
8.58311e-07
8.57697e-07
8.56379e-07
8.597e-07
8.52172e-07
8.51756e-07
8.53087e-07
8.51095e-07
8.51358e-07
8.51356e-07
8.50758e-07
8.51634e-07
8.52e-07
8.53085e-07
8.52672e-07
8.4621e-07
8.4617e-07
8.46169e-07
8.46212e-07
8.49188e-07
8.48888e-07
8.51093e-07
8.46208e-07
8.45802e-07
8.45917e-07
8.45906e-07
8.45811e-07
8.46212e-07
8.45561e-07
8.49586e-07
8.5217e-07
8.51354e-07
8.46167e-07
8.45906e-07
8.45981e-07
8.45976e-07
8.45914e-07
8.4617e-07
8.44649e-07
8.49587e-07
8.51755e-07
8.51352e-07
8.46167e-07
8.45905e-07
8.45977e-07
8.45976e-07
8.45915e-07
8.46171e-07
8.44801e-07
8.48397e-07
8.50752e-07
8.46208e-07
8.45804e-07
8.45914e-07
8.45905e-07
8.4581e-07
8.46213e-07
8.44852e-07
8.47489e-07
8.51632e-07
8.49187e-07
8.46211e-07
8.46169e-07
8.46168e-07
8.46212e-07
8.42436e-07
8.46879e-07
8.50175e-07
8.51997e-07
8.48887e-07
8.45561e-07
8.44651e-07
8.44801e-07
8.44853e-07
8.46878e-07
8.4759e-07
8.49578e-07
8.49584e-07
8.48396e-07
8.4749e-07
8.5017e-07
8.43017e-07
8.42591e-07
8.43954e-07
8.42082e-07
8.42396e-07
8.42436e-07
8.4172e-07
8.42503e-07
8.42845e-07
8.43955e-07
8.43786e-07
8.37315e-07
8.37299e-07
8.37298e-07
8.37314e-07
8.40058e-07
8.39736e-07
8.42079e-07
8.37315e-07
8.37166e-07
8.37174e-07
8.37171e-07
8.37168e-07
8.37316e-07
8.36412e-07
8.40435e-07
8.43017e-07
8.42396e-07
8.373e-07
8.37171e-07
8.37173e-07
8.37171e-07
8.37173e-07
8.37299e-07
8.3517e-07
8.40369e-07
8.4259e-07
8.42436e-07
8.37299e-07
8.3717e-07
8.37171e-07
8.3717e-07
8.37173e-07
8.37299e-07
8.35229e-07
8.39177e-07
8.4172e-07
8.37314e-07
8.37166e-07
8.37173e-07
8.3717e-07
8.37169e-07
8.37315e-07
8.35416e-07
8.38275e-07
8.42498e-07
8.40058e-07
8.37315e-07
8.373e-07
8.37299e-07
8.37315e-07
8.3297e-07
8.37569e-07
8.40963e-07
8.42842e-07
8.39734e-07
8.36414e-07
8.35171e-07
8.35227e-07
8.35412e-07
8.37566e-07
8.38407e-07
8.40439e-07
8.40366e-07
8.39178e-07
8.38274e-07
8.40966e-07
8.34013e-07
8.33583e-07
8.34952e-07
8.33116e-07
8.33457e-07
8.33506e-07
8.32735e-07
8.335e-07
8.33835e-07
8.34947e-07
8.34854e-07
8.28367e-07
8.28364e-07
8.28365e-07
8.28368e-07
8.31056e-07
8.30724e-07
8.33115e-07
8.28367e-07
8.2831e-07
8.28322e-07
8.28319e-07
8.28311e-07
8.28367e-07
8.27378e-07
8.31433e-07
8.34013e-07
8.33457e-07
8.28364e-07
8.2832e-07
8.28321e-07
8.2832e-07
8.28322e-07
8.28365e-07
8.26079e-07
8.31348e-07
8.33584e-07
8.33504e-07
8.28364e-07
8.28321e-07
8.2832e-07
8.28319e-07
8.28322e-07
8.28365e-07
8.26151e-07
8.30163e-07
8.32733e-07
8.28367e-07
8.2831e-07
8.28321e-07
8.28318e-07
8.28311e-07
8.28368e-07
8.26384e-07
8.29251e-07
8.33501e-07
8.31057e-07
8.28367e-07
8.28364e-07
8.28364e-07
8.28368e-07
8.23912e-07
8.28561e-07
8.31946e-07
8.33835e-07
8.30724e-07
8.27378e-07
8.26078e-07
8.26147e-07
8.26381e-07
8.28558e-07
8.29396e-07
8.31431e-07
8.31345e-07
8.30161e-07
8.29251e-07
8.31946e-07
8.25059e-07
8.24628e-07
8.25993e-07
8.24173e-07
8.24521e-07
8.24571e-07
8.23779e-07
8.24545e-07
8.24877e-07
8.25992e-07
8.25922e-07
8.19425e-07
8.19425e-07
8.19425e-07
8.19424e-07
8.22098e-07
8.21765e-07
8.24172e-07
8.19424e-07
8.19406e-07
8.19408e-07
8.19409e-07
8.19405e-07
8.19423e-07
8.18419e-07
8.22482e-07
8.25058e-07
8.24522e-07
8.19425e-07
8.19409e-07
8.19411e-07
8.19412e-07
8.19409e-07
8.19425e-07
8.17101e-07
8.22386e-07
8.24628e-07
8.24572e-07
8.19426e-07
8.19409e-07
8.19411e-07
8.19412e-07
8.19409e-07
8.19425e-07
8.17175e-07
8.21204e-07
8.23781e-07
8.19424e-07
8.19406e-07
8.19408e-07
8.19408e-07
8.19406e-07
8.19424e-07
8.17424e-07
8.2029e-07
8.24543e-07
8.22098e-07
8.19424e-07
8.19425e-07
8.19424e-07
8.19424e-07
8.14939e-07
8.19602e-07
8.22985e-07
8.24876e-07
8.21765e-07
8.18418e-07
8.17099e-07
8.1717e-07
8.1742e-07
8.19598e-07
8.20433e-07
8.22477e-07
8.22384e-07
8.21202e-07
8.2029e-07
8.22979e-07
8.1612e-07
8.15688e-07
8.17052e-07
8.1524e-07
8.15591e-07
8.1564e-07
8.14838e-07
8.15604e-07
8.15935e-07
8.17052e-07
8.16988e-07
8.10485e-07
8.10489e-07
8.10489e-07
8.10485e-07
8.13157e-07
8.12823e-07
8.1524e-07
8.10487e-07
8.1048e-07
8.10483e-07
8.10483e-07
8.1048e-07
8.10487e-07
8.09474e-07
8.13539e-07
8.16118e-07
8.15592e-07
8.10489e-07
8.10481e-07
8.10484e-07
8.10484e-07
8.1048e-07
8.10487e-07
8.08151e-07
8.13444e-07
8.15688e-07
8.15638e-07
8.10488e-07
8.10481e-07
8.10483e-07
8.10484e-07
8.1048e-07
8.10487e-07
8.08231e-07
8.12263e-07
8.14839e-07
8.10487e-07
8.10481e-07
8.10483e-07
8.10483e-07
8.10481e-07
8.10486e-07
8.08486e-07
8.11349e-07
8.15603e-07
8.13157e-07
8.10486e-07
8.10488e-07
8.10488e-07
8.10486e-07
8.05998e-07
8.10664e-07
8.14042e-07
8.15935e-07
8.12823e-07
8.09475e-07
8.08152e-07
8.08231e-07
8.08484e-07
8.1066e-07
8.11491e-07
8.13534e-07
8.13445e-07
8.12263e-07
8.11347e-07
8.14038e-07
8.07185e-07
8.06753e-07
8.08117e-07
8.06306e-07
8.06657e-07
8.06704e-07
8.05901e-07
8.06668e-07
8.07e-07
8.08116e-07
8.08054e-07
8.01551e-07
8.0155e-07
8.0155e-07
8.01551e-07
8.04221e-07
8.03888e-07
8.06305e-07
8.0155e-07
8.01549e-07
8.01549e-07
8.01549e-07
8.0155e-07
8.01551e-07
8.00541e-07
8.04605e-07
8.07183e-07
8.06658e-07
8.0155e-07
8.0155e-07
8.0155e-07
8.01549e-07
8.0155e-07
8.01551e-07
7.99216e-07
8.0451e-07
8.06753e-07
8.06704e-07
8.01551e-07
8.01549e-07
8.0155e-07
8.0155e-07
8.0155e-07
8.01551e-07
7.99296e-07
8.03328e-07
8.05903e-07
8.01551e-07
8.01549e-07
8.0155e-07
8.0155e-07
8.01549e-07
8.01551e-07
7.99553e-07
8.02413e-07
8.06667e-07
8.0422e-07
8.01551e-07
8.0155e-07
8.01551e-07
8.01551e-07
7.97062e-07
8.01728e-07
8.05105e-07
8.06998e-07
8.03886e-07
8.00539e-07
7.99213e-07
7.99292e-07
7.99548e-07
8.01724e-07
8.02555e-07
8.046e-07
8.04507e-07
8.03328e-07
8.02411e-07
8.05101e-07
7.98249e-07
7.97818e-07
7.99181e-07
7.97371e-07
7.97723e-07
7.9777e-07
7.96967e-07
7.97733e-07
7.98064e-07
7.99181e-07
7.99121e-07
7.92615e-07
7.92616e-07
7.92616e-07
7.92616e-07
7.95284e-07
7.94951e-07
7.97371e-07
7.92617e-07
7.92615e-07
7.92615e-07
7.92615e-07
7.92615e-07
7.92614e-07
7.91605e-07
7.95668e-07
7.98249e-07
7.97724e-07
7.92615e-07
7.92614e-07
7.92615e-07
7.92615e-07
7.92615e-07
7.92615e-07
7.90279e-07
7.95574e-07
7.97818e-07
7.97771e-07
7.92616e-07
7.92616e-07
7.92616e-07
7.92616e-07
7.92615e-07
7.92615e-07
7.9036e-07
7.94392e-07
7.96968e-07
7.92614e-07
7.92613e-07
7.92613e-07
7.92613e-07
7.92614e-07
7.92616e-07
7.90618e-07
7.93478e-07
7.97732e-07
7.95284e-07
7.92617e-07
7.92616e-07
7.92616e-07
7.92616e-07
7.88128e-07
7.92792e-07
7.96169e-07
7.98063e-07
7.94951e-07
7.91604e-07
7.90276e-07
7.90356e-07
7.90612e-07
7.92789e-07
7.93619e-07
7.95665e-07
7.95572e-07
7.94392e-07
7.93477e-07
7.96167e-07
7.89314e-07
7.88882e-07
7.90246e-07
7.88437e-07
7.88789e-07
7.88836e-07
7.88031e-07
7.88797e-07
7.89129e-07
7.90246e-07
7.90186e-07
7.83681e-07
7.83681e-07
7.8368e-07
7.8368e-07
7.86349e-07
7.86016e-07
7.88436e-07
7.8368e-07
7.83679e-07
7.83679e-07
7.8368e-07
7.83679e-07
7.8368e-07
7.82669e-07
7.86734e-07
7.89313e-07
7.88789e-07
7.83681e-07
7.83681e-07
7.83681e-07
7.83681e-07
7.8368e-07
7.83681e-07
7.81344e-07
7.86639e-07
7.88882e-07
7.88836e-07
7.8368e-07
7.83679e-07
7.8368e-07
7.83681e-07
7.83679e-07
7.8368e-07
7.81425e-07
7.85457e-07
7.88032e-07
7.83681e-07
7.8368e-07
7.8368e-07
7.8368e-07
7.8368e-07
7.83681e-07
7.81683e-07
7.84542e-07
7.88796e-07
7.86347e-07
7.8368e-07
7.8368e-07
7.8368e-07
7.8368e-07
7.79194e-07
7.83857e-07
7.87234e-07
7.89128e-07
7.86015e-07
7.82668e-07
7.8134e-07
7.81421e-07
7.81678e-07
7.83854e-07
7.84684e-07
7.8673e-07
7.86637e-07
7.85457e-07
7.84541e-07
7.87231e-07
7.80379e-07
7.79947e-07
7.81314e-07
7.79502e-07
7.79854e-07
7.799e-07
7.79095e-07
7.79863e-07
7.80194e-07
7.81311e-07
7.8125e-07
7.74745e-07
7.74745e-07
7.74745e-07
7.74744e-07
7.77413e-07
7.77081e-07
7.79501e-07
7.74745e-07
7.74745e-07
7.74745e-07
7.74745e-07
7.74745e-07
7.74744e-07
7.73735e-07
7.77799e-07
7.80378e-07
7.79854e-07
7.74745e-07
7.74745e-07
7.74745e-07
7.74745e-07
7.74745e-07
7.74745e-07
7.72409e-07
7.77705e-07
7.79947e-07
7.799e-07
7.74745e-07
7.74745e-07
7.74745e-07
7.74745e-07
7.74745e-07
7.74745e-07
7.72491e-07
7.76523e-07
7.79096e-07
7.74744e-07
7.74745e-07
7.74745e-07
7.74745e-07
7.74745e-07
7.74745e-07
7.72748e-07
7.75607e-07
7.79861e-07
7.77412e-07
7.74744e-07
7.74745e-07
7.74745e-07
7.74744e-07
7.70259e-07
7.74922e-07
7.78299e-07
7.80193e-07
7.7708e-07
7.73733e-07
7.72404e-07
7.72486e-07
7.72743e-07
7.74919e-07
7.75749e-07
7.77795e-07
7.77702e-07
7.76522e-07
7.75606e-07
7.78295e-07
7.71444e-07
7.71012e-07
7.72377e-07
7.70567e-07
7.7092e-07
7.70965e-07
7.70161e-07
7.70926e-07
7.71257e-07
7.72376e-07
7.72315e-07
7.6581e-07
7.6581e-07
7.6581e-07
7.6581e-07
7.68478e-07
7.68145e-07
7.70566e-07
7.6581e-07
7.6581e-07
7.6581e-07
7.6581e-07
7.6581e-07
7.6581e-07
7.648e-07
7.68864e-07
7.71443e-07
7.7092e-07
7.6581e-07
7.6581e-07
7.65811e-07
7.6581e-07
7.6581e-07
7.6581e-07
7.63475e-07
7.6877e-07
7.71012e-07
7.70966e-07
7.6581e-07
7.6581e-07
7.6581e-07
7.6581e-07
7.6581e-07
7.6581e-07
7.63556e-07
7.67588e-07
7.70162e-07
7.6581e-07
7.6581e-07
7.65811e-07
7.65811e-07
7.6581e-07
7.6581e-07
7.63814e-07
7.66672e-07
7.70926e-07
7.68477e-07
7.6581e-07
7.6581e-07
7.6581e-07
7.6581e-07
7.61324e-07
7.65987e-07
7.69363e-07
7.71258e-07
7.68145e-07
7.64799e-07
7.6347e-07
7.63551e-07
7.63808e-07
7.65984e-07
7.66814e-07
7.6886e-07
7.68767e-07
7.67587e-07
7.66671e-07
7.69361e-07
7.6251e-07
7.62078e-07
7.63446e-07
7.61633e-07
7.61986e-07
7.62031e-07
7.61229e-07
7.61991e-07
7.62324e-07
7.63442e-07
7.63382e-07
7.56876e-07
7.56876e-07
7.56876e-07
7.56876e-07
7.59545e-07
7.59211e-07
7.61632e-07
7.56876e-07
7.56876e-07
7.56876e-07
7.56876e-07
7.56876e-07
7.56876e-07
7.55866e-07
7.5993e-07
7.62509e-07
7.61986e-07
7.56876e-07
7.56876e-07
7.56877e-07
7.56877e-07
7.56876e-07
7.56876e-07
7.54541e-07
7.59836e-07
7.62079e-07
7.62032e-07
7.56876e-07
7.56876e-07
7.56876e-07
7.56876e-07
7.56876e-07
7.56876e-07
7.54622e-07
7.58654e-07
7.61228e-07
7.56876e-07
7.56876e-07
7.56877e-07
7.56877e-07
7.56876e-07
7.56876e-07
7.5488e-07
7.57738e-07
7.61993e-07
7.59543e-07
7.56876e-07
7.56876e-07
7.56876e-07
7.56876e-07
7.5239e-07
7.57053e-07
7.60429e-07
7.62324e-07
7.59211e-07
7.55865e-07
7.54536e-07
7.54616e-07
7.54874e-07
7.5705e-07
7.5788e-07
7.59926e-07
7.59833e-07
7.58653e-07
7.57737e-07
7.60427e-07
7.53576e-07
7.53145e-07
7.5451e-07
7.52699e-07
7.53052e-07
7.53098e-07
7.52295e-07
7.53058e-07
7.5339e-07
7.54508e-07
7.54448e-07
7.47942e-07
7.47942e-07
7.47942e-07
7.47942e-07
7.50611e-07
7.50278e-07
7.52698e-07
7.47942e-07
7.47942e-07
7.47942e-07
7.47942e-07
7.47942e-07
7.47942e-07
7.46932e-07
7.50996e-07
7.53576e-07
7.53052e-07
7.47942e-07
7.47942e-07
7.47942e-07
7.47942e-07
7.47942e-07
7.47942e-07
7.45607e-07
7.50902e-07
7.53145e-07
7.53098e-07
7.47942e-07
7.47942e-07
7.47942e-07
7.47942e-07
7.47942e-07
7.47942e-07
7.45689e-07
7.49721e-07
7.52294e-07
7.47942e-07
7.47942e-07
7.47942e-07
7.47942e-07
7.47942e-07
7.47942e-07
7.45946e-07
7.48805e-07
7.53059e-07
7.50609e-07
7.47942e-07
7.47942e-07
7.47942e-07
7.47942e-07
7.43456e-07
7.4812e-07
7.51496e-07
7.5339e-07
7.50277e-07
7.46931e-07
7.45602e-07
7.45683e-07
7.4594e-07
7.48117e-07
7.48946e-07
7.50993e-07
7.509e-07
7.49719e-07
7.48803e-07
7.51493e-07
7.44642e-07
7.4421e-07
7.45575e-07
7.43765e-07
7.44117e-07
7.44163e-07
7.4336e-07
7.44125e-07
7.44457e-07
7.45574e-07
7.45514e-07
7.39007e-07
7.39007e-07
7.39007e-07
7.39008e-07
7.41676e-07
7.41343e-07
7.43764e-07
7.39008e-07
7.39007e-07
7.39007e-07
7.39007e-07
7.39007e-07
7.39007e-07
7.37998e-07
7.42062e-07
7.44641e-07
7.44117e-07
7.39007e-07
7.39007e-07
7.39007e-07
7.39007e-07
7.39007e-07
7.39007e-07
7.36673e-07
7.41968e-07
7.4421e-07
7.44164e-07
7.39007e-07
7.39007e-07
7.39007e-07
7.39007e-07
7.39007e-07
7.39007e-07
7.36754e-07
7.40786e-07
7.43359e-07
7.39007e-07
7.39007e-07
7.39007e-07
7.39007e-07
7.39007e-07
7.39007e-07
7.37011e-07
7.3987e-07
7.44124e-07
7.41674e-07
7.39007e-07
7.39007e-07
7.39007e-07
7.39007e-07
7.34522e-07
7.39185e-07
7.42561e-07
7.44455e-07
7.41343e-07
7.37996e-07
7.36668e-07
7.36748e-07
7.37006e-07
7.39182e-07
7.40012e-07
7.42058e-07
7.41965e-07
7.40785e-07
7.39869e-07
7.42558e-07
7.35705e-07
7.35274e-07
7.3664e-07
7.34828e-07
7.35181e-07
7.35227e-07
7.34424e-07
7.35187e-07
7.3552e-07
7.36638e-07
7.36577e-07
7.30072e-07
7.30072e-07
7.30072e-07
7.30072e-07
7.3274e-07
7.32407e-07
7.34828e-07
7.30072e-07
7.30072e-07
7.30072e-07
7.30072e-07
7.30072e-07
7.30072e-07
7.29062e-07
7.33126e-07
7.35705e-07
7.35181e-07
7.30072e-07
7.30072e-07
7.30072e-07
7.30072e-07
7.30072e-07
7.30072e-07
7.27737e-07
7.33032e-07
7.35274e-07
7.35228e-07
7.30072e-07
7.30072e-07
7.30072e-07
7.30072e-07
7.30072e-07
7.30072e-07
7.27818e-07
7.3185e-07
7.34423e-07
7.30072e-07
7.30072e-07
7.30072e-07
7.30072e-07
7.30072e-07
7.30072e-07
7.28075e-07
7.30934e-07
7.35188e-07
7.32738e-07
7.30072e-07
7.30072e-07
7.30072e-07
7.30072e-07
7.25586e-07
7.30249e-07
7.33625e-07
7.3552e-07
7.32407e-07
7.2906e-07
7.27731e-07
7.27812e-07
7.28069e-07
7.30246e-07
7.31076e-07
7.33122e-07
7.33029e-07
7.31848e-07
7.30933e-07
7.33623e-07
7.2677e-07
7.26339e-07
7.27704e-07
7.25893e-07
7.26246e-07
7.26292e-07
7.25488e-07
7.26253e-07
7.26584e-07
7.27702e-07
7.27642e-07
7.21137e-07
7.21137e-07
7.21137e-07
7.21137e-07
7.23805e-07
7.23472e-07
7.25893e-07
7.21137e-07
7.21137e-07
7.21137e-07
7.21137e-07
7.21137e-07
7.21137e-07
7.20127e-07
7.2419e-07
7.2677e-07
7.26246e-07
7.21137e-07
7.21137e-07
7.21137e-07
7.21137e-07
7.21137e-07
7.21137e-07
7.18802e-07
7.24096e-07
7.26339e-07
7.26293e-07
7.21137e-07
7.21137e-07
7.21137e-07
7.21137e-07
7.21137e-07
7.21137e-07
7.18883e-07
7.22915e-07
7.25488e-07
7.21137e-07
7.21137e-07
7.21137e-07
7.21137e-07
7.21137e-07
7.21137e-07
7.1914e-07
7.21999e-07
7.26253e-07
7.23803e-07
7.21137e-07
7.21137e-07
7.21137e-07
7.21137e-07
7.16651e-07
7.21314e-07
7.24689e-07
7.26584e-07
7.23471e-07
7.20125e-07
7.18797e-07
7.18877e-07
7.19135e-07
7.21311e-07
7.2214e-07
7.24187e-07
7.24094e-07
7.22914e-07
7.21997e-07
7.24687e-07
7.17836e-07
7.17405e-07
7.1877e-07
7.16959e-07
7.17312e-07
7.17358e-07
7.16555e-07
7.17319e-07
7.17651e-07
7.18769e-07
7.18708e-07
7.12203e-07
7.12203e-07
7.12203e-07
7.12203e-07
7.14871e-07
7.14539e-07
7.16959e-07
7.12203e-07
7.12203e-07
7.12203e-07
7.12203e-07
7.12203e-07
7.12203e-07
7.11192e-07
7.15257e-07
7.17836e-07
7.17312e-07
7.12203e-07
7.12203e-07
7.12203e-07
7.12203e-07
7.12203e-07
7.12203e-07
7.09868e-07
7.15163e-07
7.17405e-07
7.17359e-07
7.12203e-07
7.12203e-07
7.12203e-07
7.12203e-07
7.12203e-07
7.12203e-07
7.09949e-07
7.13981e-07
7.16554e-07
7.12203e-07
7.12203e-07
7.12203e-07
7.12203e-07
7.12203e-07
7.12203e-07
7.10206e-07
7.13065e-07
7.17319e-07
7.1487e-07
7.12203e-07
7.12203e-07
7.12203e-07
7.12203e-07
7.07717e-07
7.1238e-07
7.15756e-07
7.17651e-07
7.14538e-07
7.11192e-07
7.09864e-07
7.09945e-07
7.10201e-07
7.12377e-07
7.13207e-07
7.15253e-07
7.1516e-07
7.1398e-07
7.13063e-07
7.15753e-07
7.08903e-07
7.08472e-07
7.09837e-07
7.08026e-07
7.08379e-07
7.08425e-07
7.07622e-07
7.08385e-07
7.08715e-07
7.09835e-07
7.09775e-07
7.03269e-07
7.03269e-07
7.03269e-07
7.03269e-07
7.05937e-07
7.05605e-07
7.08026e-07
7.03269e-07
7.03269e-07
7.03269e-07
7.03269e-07
7.03269e-07
7.03269e-07
7.02259e-07
7.06323e-07
7.08903e-07
7.08379e-07
7.03269e-07
7.03269e-07
7.03269e-07
7.03269e-07
7.03269e-07
7.03269e-07
7.00934e-07
7.06229e-07
7.08472e-07
7.08426e-07
7.03269e-07
7.03269e-07
7.03269e-07
7.03269e-07
7.03269e-07
7.03269e-07
7.01016e-07
7.05048e-07
7.07621e-07
7.03269e-07
7.03269e-07
7.03269e-07
7.03269e-07
7.03269e-07
7.03269e-07
7.01273e-07
7.04132e-07
7.08386e-07
7.05936e-07
7.03269e-07
7.03269e-07
7.03269e-07
7.03269e-07
6.98783e-07
7.03447e-07
7.06823e-07
7.08717e-07
7.05604e-07
7.02258e-07
7.00929e-07
7.0101e-07
7.01267e-07
7.03443e-07
7.04273e-07
7.06319e-07
7.06226e-07
7.05045e-07
7.04129e-07
7.0682e-07
6.99969e-07
6.99537e-07
7.00902e-07
6.99091e-07
6.99444e-07
6.9949e-07
6.98687e-07
6.9945e-07
6.99781e-07
7.00901e-07
7.0084e-07
6.94334e-07
6.94334e-07
6.94334e-07
6.94334e-07
6.97003e-07
6.9667e-07
6.99091e-07
6.94334e-07
6.94334e-07
6.94334e-07
6.94334e-07
6.94334e-07
6.94334e-07
6.93324e-07
6.97388e-07
6.99968e-07
6.99444e-07
6.94334e-07
6.94334e-07
6.94334e-07
6.94334e-07
6.94334e-07
6.94334e-07
6.91999e-07
6.97294e-07
6.99537e-07
6.99491e-07
6.94334e-07
6.94334e-07
6.94334e-07
6.94334e-07
6.94334e-07
6.94334e-07
6.92081e-07
6.96113e-07
6.98686e-07
6.94334e-07
6.94334e-07
6.94334e-07
6.94334e-07
6.94334e-07
6.94334e-07
6.92338e-07
6.95197e-07
6.99451e-07
6.97001e-07
6.94334e-07
6.94334e-07
6.94334e-07
6.94334e-07
6.89849e-07
6.94512e-07
6.97888e-07
6.99782e-07
6.96669e-07
6.93323e-07
6.91996e-07
6.92077e-07
6.92333e-07
6.94509e-07
6.95339e-07
6.97385e-07
6.97292e-07
6.96112e-07
6.95195e-07
6.97885e-07
6.91033e-07
6.90601e-07
6.91966e-07
6.90155e-07
6.90508e-07
6.90554e-07
6.89751e-07
6.90514e-07
6.90846e-07
6.91965e-07
6.91904e-07
6.85398e-07
6.85399e-07
6.85399e-07
6.85398e-07
6.88067e-07
6.87734e-07
6.90155e-07
6.85398e-07
6.85399e-07
6.85399e-07
6.85399e-07
6.85399e-07
6.85398e-07
6.84388e-07
6.88453e-07
6.91032e-07
6.90508e-07
6.85398e-07
6.85399e-07
6.85399e-07
6.85399e-07
6.85399e-07
6.85398e-07
6.83064e-07
6.88359e-07
6.90601e-07
6.90555e-07
6.85399e-07
6.85399e-07
6.85399e-07
6.85399e-07
6.85399e-07
6.85398e-07
6.83145e-07
6.87177e-07
6.8975e-07
6.85398e-07
6.85399e-07
6.85399e-07
6.85399e-07
6.85399e-07
6.85398e-07
6.83402e-07
6.86261e-07
6.90515e-07
6.88065e-07
6.85398e-07
6.85399e-07
6.85399e-07
6.85398e-07
6.80913e-07
6.85576e-07
6.88952e-07
6.90847e-07
6.87734e-07
6.84387e-07
6.8306e-07
6.83141e-07
6.83397e-07
6.85573e-07
6.86403e-07
6.88449e-07
6.88357e-07
6.87176e-07
6.86259e-07
6.8895e-07
6.82097e-07
6.81666e-07
6.8303e-07
6.8122e-07
6.81573e-07
6.81619e-07
6.80815e-07
6.81578e-07
6.8191e-07
6.83029e-07
6.82969e-07
6.76464e-07
6.76464e-07
6.76464e-07
6.76464e-07
6.79132e-07
6.78799e-07
6.81219e-07
6.76463e-07
6.76464e-07
6.76464e-07
6.76464e-07
6.76464e-07
6.76463e-07
6.75453e-07
6.79517e-07
6.82096e-07
6.81573e-07
6.76463e-07
6.76464e-07
6.76464e-07
6.76464e-07
6.76464e-07
6.76463e-07
6.74128e-07
6.79423e-07
6.81666e-07
6.81619e-07
6.76463e-07
6.76464e-07
6.76464e-07
6.76464e-07
6.76464e-07
6.76463e-07
6.7421e-07
6.78242e-07
6.80815e-07
6.76463e-07
6.76464e-07
6.76464e-07
6.76464e-07
6.76464e-07
6.76463e-07
6.74467e-07
6.77326e-07
6.8158e-07
6.7913e-07
6.76463e-07
6.76463e-07
6.76463e-07
6.76463e-07
6.71978e-07
6.76641e-07
6.80016e-07
6.81911e-07
6.78798e-07
6.75452e-07
6.74125e-07
6.74205e-07
6.74461e-07
6.76637e-07
6.77467e-07
6.79513e-07
6.79421e-07
6.7824e-07
6.77323e-07
6.80013e-07
6.73163e-07
6.72732e-07
6.74096e-07
6.72286e-07
6.72639e-07
6.72685e-07
6.71881e-07
6.72644e-07
6.72976e-07
6.74095e-07
6.74034e-07
6.67529e-07
6.67529e-07
6.67529e-07
6.67529e-07
6.70198e-07
6.69865e-07
6.72285e-07
6.67529e-07
6.67529e-07
6.67529e-07
6.67529e-07
6.6753e-07
6.67529e-07
6.66519e-07
6.70583e-07
6.73162e-07
6.72639e-07
6.67529e-07
6.67529e-07
6.67529e-07
6.67529e-07
6.67529e-07
6.67529e-07
6.65194e-07
6.70489e-07
6.72732e-07
6.72685e-07
6.67529e-07
6.67529e-07
6.67529e-07
6.67529e-07
6.67529e-07
6.67529e-07
6.65276e-07
6.69308e-07
6.71881e-07
6.67529e-07
6.67529e-07
6.67529e-07
6.67529e-07
6.67529e-07
6.67529e-07
6.65533e-07
6.68392e-07
6.72646e-07
6.70196e-07
6.67529e-07
6.67529e-07
6.67529e-07
6.67529e-07
6.63044e-07
6.67707e-07
6.71083e-07
6.72977e-07
6.69864e-07
6.66518e-07
6.65191e-07
6.65271e-07
6.65527e-07
6.67704e-07
6.68533e-07
6.7058e-07
6.70487e-07
6.69306e-07
6.68389e-07
6.71079e-07
6.64229e-07
6.63798e-07
6.65162e-07
6.63352e-07
6.63705e-07
6.63751e-07
6.62947e-07
6.6371e-07
6.64041e-07
6.65161e-07
6.651e-07
6.58595e-07
6.58595e-07
6.58595e-07
6.58595e-07
6.61264e-07
6.60931e-07
6.63351e-07
6.58595e-07
6.58595e-07
6.58595e-07
6.58595e-07
6.58595e-07
6.58595e-07
6.57585e-07
6.6165e-07
6.64228e-07
6.63705e-07
6.58595e-07
6.58595e-07
6.58595e-07
6.58595e-07
6.58595e-07
6.58595e-07
6.5626e-07
6.61555e-07
6.63798e-07
6.63751e-07
6.58595e-07
6.58595e-07
6.58595e-07
6.58595e-07
6.58595e-07
6.58595e-07
6.56341e-07
6.60374e-07
6.62947e-07
6.58595e-07
6.58595e-07
6.58595e-07
6.58595e-07
6.58595e-07
6.58595e-07
6.56599e-07
6.59458e-07
6.63712e-07
6.61262e-07
6.58595e-07
6.58595e-07
6.58595e-07
6.58595e-07
6.54109e-07
6.58773e-07
6.62148e-07
6.64043e-07
6.6093e-07
6.57584e-07
6.56257e-07
6.56337e-07
6.56593e-07
6.58769e-07
6.59599e-07
6.61645e-07
6.61553e-07
6.60372e-07
6.59455e-07
6.62145e-07
6.55294e-07
6.54863e-07
6.56227e-07
6.54417e-07
6.5477e-07
6.54816e-07
6.54012e-07
6.54776e-07
6.55107e-07
6.56226e-07
6.56166e-07
6.49661e-07
6.49661e-07
6.49661e-07
6.49661e-07
6.52329e-07
6.51996e-07
6.54417e-07
6.49661e-07
6.49661e-07
6.49661e-07
6.49661e-07
6.49661e-07
6.49661e-07
6.4865e-07
6.52715e-07
6.55294e-07
6.5477e-07
6.49661e-07
6.49661e-07
6.49661e-07
6.49661e-07
6.49661e-07
6.49661e-07
6.47326e-07
6.5262e-07
6.54863e-07
6.54817e-07
6.49661e-07
6.49661e-07
6.49661e-07
6.49661e-07
6.49661e-07
6.49661e-07
6.47407e-07
6.51439e-07
6.54012e-07
6.49661e-07
6.49661e-07
6.49661e-07
6.49661e-07
6.49661e-07
6.49661e-07
6.47664e-07
6.50523e-07
6.54777e-07
6.52327e-07
6.49661e-07
6.49661e-07
6.49661e-07
6.49661e-07
6.45175e-07
6.49838e-07
6.53213e-07
6.55108e-07
6.51995e-07
6.48649e-07
6.47322e-07
6.47402e-07
6.47659e-07
6.49835e-07
6.50664e-07
6.52711e-07
6.52618e-07
6.51437e-07
6.5052e-07
6.5321e-07
6.4636e-07
6.45929e-07
6.47294e-07
6.45483e-07
6.45836e-07
6.45882e-07
6.45078e-07
6.45842e-07
6.46173e-07
6.47293e-07
6.47232e-07
6.40727e-07
6.40727e-07
6.40727e-07
6.40727e-07
6.43396e-07
6.43062e-07
6.45483e-07
6.40727e-07
6.40727e-07
6.40727e-07
6.40727e-07
6.40727e-07
6.40727e-07
6.39716e-07
6.43781e-07
6.4636e-07
6.45836e-07
6.40727e-07
6.40727e-07
6.40727e-07
6.40727e-07
6.40727e-07
6.40727e-07
6.38392e-07
6.43686e-07
6.45929e-07
6.45883e-07
6.40727e-07
6.40727e-07
6.40727e-07
6.40727e-07
6.40727e-07
6.40727e-07
6.38473e-07
6.42505e-07
6.45078e-07
6.40727e-07
6.40727e-07
6.40727e-07
6.40727e-07
6.40727e-07
6.40727e-07
6.3873e-07
6.41589e-07
6.45843e-07
6.43393e-07
6.40727e-07
6.40727e-07
6.40727e-07
6.40727e-07
6.36241e-07
6.40904e-07
6.4428e-07
6.46174e-07
6.43062e-07
6.39715e-07
6.38388e-07
6.38468e-07
6.38725e-07
6.40901e-07
6.41731e-07
6.43777e-07
6.43684e-07
6.42503e-07
6.41586e-07
6.44276e-07
6.37425e-07
6.36994e-07
6.38362e-07
6.36548e-07
6.36901e-07
6.36947e-07
6.36142e-07
6.36908e-07
6.37241e-07
6.38359e-07
6.38298e-07
6.31792e-07
6.31792e-07
6.31792e-07
6.31792e-07
6.34461e-07
6.34128e-07
6.36548e-07
6.31792e-07
6.31792e-07
6.31792e-07
6.31792e-07
6.31792e-07
6.31792e-07
6.30782e-07
6.34847e-07
6.37426e-07
6.36902e-07
6.31792e-07
6.31792e-07
6.31792e-07
6.31792e-07
6.31792e-07
6.31792e-07
6.29457e-07
6.34752e-07
6.36995e-07
6.36948e-07
6.31792e-07
6.31792e-07
6.31792e-07
6.31792e-07
6.31792e-07
6.31792e-07
6.29538e-07
6.33571e-07
6.36144e-07
6.31792e-07
6.31792e-07
6.31792e-07
6.31792e-07
6.31792e-07
6.31792e-07
6.29796e-07
6.32655e-07
6.36909e-07
6.34459e-07
6.31791e-07
6.31792e-07
6.31791e-07
6.31792e-07
6.27306e-07
6.31969e-07
6.35345e-07
6.3724e-07
6.34127e-07
6.30781e-07
6.29453e-07
6.29534e-07
6.2979e-07
6.31966e-07
6.32796e-07
6.34842e-07
6.3475e-07
6.33569e-07
6.32652e-07
6.35342e-07
6.2849e-07
6.28058e-07
6.29426e-07
6.27612e-07
6.27966e-07
6.28011e-07
6.27206e-07
6.27972e-07
6.28305e-07
6.29423e-07
6.29362e-07
6.22856e-07
6.22856e-07
6.22856e-07
6.22856e-07
6.25525e-07
6.25192e-07
6.27613e-07
6.22856e-07
6.22857e-07
6.22856e-07
6.22856e-07
6.22856e-07
6.22856e-07
6.21846e-07
6.25911e-07
6.2849e-07
6.27966e-07
6.22856e-07
6.22856e-07
6.22856e-07
6.22856e-07
6.22856e-07
6.22856e-07
6.20521e-07
6.25816e-07
6.28059e-07
6.28012e-07
6.22856e-07
6.22856e-07
6.22856e-07
6.22856e-07
6.22856e-07
6.22856e-07
6.20603e-07
6.24635e-07
6.27208e-07
6.22856e-07
6.22856e-07
6.22856e-07
6.22856e-07
6.22856e-07
6.22856e-07
6.2086e-07
6.23719e-07
6.27973e-07
6.25523e-07
6.22856e-07
6.22856e-07
6.22856e-07
6.22856e-07
6.1837e-07
6.23034e-07
6.2641e-07
6.28304e-07
6.25191e-07
6.21844e-07
6.20517e-07
6.20597e-07
6.20854e-07
6.2303e-07
6.2386e-07
6.25907e-07
6.25814e-07
6.24633e-07
6.23716e-07
6.26406e-07
6.19554e-07
6.19123e-07
6.20491e-07
6.18677e-07
6.1903e-07
6.19076e-07
6.18271e-07
6.19038e-07
6.19371e-07
6.20488e-07
6.20428e-07
6.13922e-07
6.13922e-07
6.13922e-07
6.13922e-07
6.16589e-07
6.16257e-07
6.18678e-07
6.13922e-07
6.13922e-07
6.13922e-07
6.13922e-07
6.13922e-07
6.13922e-07
6.12911e-07
6.16976e-07
6.19555e-07
6.19031e-07
6.13922e-07
6.13922e-07
6.13922e-07
6.13922e-07
6.13922e-07
6.13922e-07
6.11586e-07
6.16881e-07
6.19124e-07
6.19077e-07
6.13922e-07
6.13922e-07
6.13922e-07
6.13922e-07
6.13922e-07
6.13922e-07
6.11668e-07
6.157e-07
6.18273e-07
6.13922e-07
6.13922e-07
6.13922e-07
6.13922e-07
6.13922e-07
6.13922e-07
6.11925e-07
6.14784e-07
6.19038e-07
6.16588e-07
6.13922e-07
6.13922e-07
6.13922e-07
6.13922e-07
6.09436e-07
6.14099e-07
6.17475e-07
6.19369e-07
6.16256e-07
6.12909e-07
6.11582e-07
6.11662e-07
6.11919e-07
6.14096e-07
6.14925e-07
6.16972e-07
6.16879e-07
6.15698e-07
6.14781e-07
6.17471e-07
6.10621e-07
6.1019e-07
6.11555e-07
6.09744e-07
6.10097e-07
6.10143e-07
6.09338e-07
6.10102e-07
6.10435e-07
6.11554e-07
6.11493e-07
6.04988e-07
6.04988e-07
6.04988e-07
6.04988e-07
6.07655e-07
6.07323e-07
6.09744e-07
6.04988e-07
6.04988e-07
6.04988e-07
6.04988e-07
6.04988e-07
6.04988e-07
6.03977e-07
6.08042e-07
6.10621e-07
6.10097e-07
6.04988e-07
6.04988e-07
6.04988e-07
6.04988e-07
6.04988e-07
6.04987e-07
6.02652e-07
6.07947e-07
6.1019e-07
6.10143e-07
6.04988e-07
6.04988e-07
6.04988e-07
6.04988e-07
6.04988e-07
6.04987e-07
6.02734e-07
6.06766e-07
6.09339e-07
6.04988e-07
6.04988e-07
6.04988e-07
6.04988e-07
6.04988e-07
6.04987e-07
6.02991e-07
6.0585e-07
6.10104e-07
6.07654e-07
6.04988e-07
6.04988e-07
6.04988e-07
6.04987e-07
6.00502e-07
6.05165e-07
6.08541e-07
6.10435e-07
6.07322e-07
6.03976e-07
6.0265e-07
6.02729e-07
6.02986e-07
6.05162e-07
6.05991e-07
6.08038e-07
6.07946e-07
6.06765e-07
6.05847e-07
6.08537e-07
6.01687e-07
6.01255e-07
6.0262e-07
6.00809e-07
6.01162e-07
6.01208e-07
6.00403e-07
6.01168e-07
6.01501e-07
6.02619e-07
6.02558e-07
5.96053e-07
5.96053e-07
5.96053e-07
5.96053e-07
5.9872e-07
5.98388e-07
6.00809e-07
5.96053e-07
5.96053e-07
5.96053e-07
5.96053e-07
5.96053e-07
5.96053e-07
5.95042e-07
5.99108e-07
6.01686e-07
6.01162e-07
5.96053e-07
5.96053e-07
5.96053e-07
5.96053e-07
5.96053e-07
5.96053e-07
5.93718e-07
5.99012e-07
6.01255e-07
6.01208e-07
5.96053e-07
5.96053e-07
5.96053e-07
5.96053e-07
5.96053e-07
5.96053e-07
5.93799e-07
5.97831e-07
6.00404e-07
5.96053e-07
5.96053e-07
5.96053e-07
5.96053e-07
5.96053e-07
5.96053e-07
5.94056e-07
5.96915e-07
6.01169e-07
5.9872e-07
5.96053e-07
5.96053e-07
5.96053e-07
5.96053e-07
5.91567e-07
5.9623e-07
5.99606e-07
6.015e-07
5.98388e-07
5.95041e-07
5.93715e-07
5.93794e-07
5.94051e-07
5.96227e-07
5.97057e-07
5.99103e-07
5.99011e-07
5.9783e-07
5.96912e-07
5.99603e-07
5.92752e-07
5.92321e-07
5.93685e-07
5.91874e-07
5.92227e-07
5.92273e-07
5.91469e-07
5.92234e-07
5.92566e-07
5.93684e-07
5.93624e-07
5.87118e-07
5.87118e-07
5.87118e-07
5.87118e-07
5.89786e-07
5.89454e-07
5.91874e-07
5.87118e-07
5.87118e-07
5.87118e-07
5.87118e-07
5.87118e-07
5.87118e-07
5.86108e-07
5.90173e-07
5.92752e-07
5.92228e-07
5.87118e-07
5.87118e-07
5.87118e-07
5.87118e-07
5.87118e-07
5.87118e-07
5.84783e-07
5.90078e-07
5.92321e-07
5.92274e-07
5.87118e-07
5.87118e-07
5.87118e-07
5.87118e-07
5.87118e-07
5.87118e-07
5.84865e-07
5.88897e-07
5.9147e-07
5.87118e-07
5.87118e-07
5.87118e-07
5.87118e-07
5.87118e-07
5.87118e-07
5.85122e-07
5.87981e-07
5.92235e-07
5.89785e-07
5.87118e-07
5.87118e-07
5.87118e-07
5.87118e-07