/*--------------------------------*- C++ -*----------------------------------*\
| =========                 |                                                 |
| \\      /  F ield         | OpenFOAM: The Open Source CFD Toolbox           |
|  \\    /   O peration     | Version:  v2012                                 |
|   \\  /    A nd           | Website:  www.openfoam.com                      |
|    \\/     M anipulation  |                                                 |
\*---------------------------------------------------------------------------*/
FoamFile
{
    version     2.0;
    format      ascii;
    class       volScalarField;
    location    "0.46";
    object      p;
}
// * * * * * * * * * * * * * * * * * * * * * * * * * * * * * * * * * * * * * //

dimensions      [0 2 -2 0 0 0 0];


internalField   nonuniform List<scalar> 
189320
(
9.71131e-07
9.70295e-07
9.65226e-07
9.65135e-07
9.64387e-07
9.63763e-07
9.651e-07
9.66535e-07
9.62731e-07
9.65214e-07
9.63086e-07
9.6422e-07
9.63694e-07
9.63608e-07
9.63893e-07
9.6385e-07
9.64029e-07
9.65125e-07
9.64206e-07
9.63463e-07
9.63147e-07
9.63087e-07
9.63309e-07
9.63727e-07
9.63243e-07
9.67212e-07
9.71168e-07
9.64316e-07
9.63683e-07
9.63144e-07
9.62854e-07
9.62798e-07
9.62981e-07
9.63407e-07
9.63928e-07
9.65599e-07
9.70257e-07
9.63746e-07
9.636e-07
9.63084e-07
9.62799e-07
9.62742e-07
9.62916e-07
9.63324e-07
9.64044e-07
9.63762e-07
9.65092e-07
9.6389e-07
9.63309e-07
9.62983e-07
9.62918e-07
9.63129e-07
9.63563e-07
9.63752e-07
9.73884e-07
9.66528e-07
9.63851e-07
9.63733e-07
9.63416e-07
9.63331e-07
9.63566e-07
9.63963e-07
9.63107e-07
9.66433e-07
9.62729e-07
9.64036e-07
9.63261e-07
9.63947e-07
9.64063e-07
9.63762e-07
9.63119e-07
9.62538e-07
9.67199e-07
9.65649e-07
9.63787e-07
9.73897e-07
9.66442e-07
9.52957e-07
9.52713e-07
9.53823e-07
9.51232e-07
9.51409e-07
9.51113e-07
9.51119e-07
9.52554e-07
9.53063e-07
9.53825e-07
9.51902e-07
9.46232e-07
9.46298e-07
9.46299e-07
9.46229e-07
9.49037e-07
9.49613e-07
9.51229e-07
9.46226e-07
9.4598e-07
9.46458e-07
9.46452e-07
9.45985e-07
9.46238e-07
9.47545e-07
9.50712e-07
9.5295e-07
9.5141e-07
9.46294e-07
9.46448e-07
9.46655e-07
9.46653e-07
9.46457e-07
9.46299e-07
9.47208e-07
9.50436e-07
9.52708e-07
9.51112e-07
9.46297e-07
9.4645e-07
9.46654e-07
9.46653e-07
9.46461e-07
9.46303e-07
9.47272e-07
9.495e-07
9.51118e-07
9.46225e-07
9.45982e-07
9.46455e-07
9.46449e-07
9.45987e-07
9.46236e-07
9.4725e-07
9.48694e-07
9.52554e-07
9.49041e-07
9.46237e-07
9.46299e-07
9.46299e-07
9.46232e-07
9.4535e-07
9.48428e-07
9.51657e-07
9.53063e-07
9.49613e-07
9.47547e-07
9.47207e-07
9.47271e-07
9.47248e-07
9.48418e-07
9.49422e-07
9.50714e-07
9.50441e-07
9.49501e-07
9.48694e-07
9.51655e-07
9.43057e-07
9.42651e-07
9.43843e-07
9.41608e-07
9.41846e-07
9.41814e-07
9.41314e-07
9.42545e-07
9.42916e-07
9.43844e-07
9.42921e-07
9.36738e-07
9.3671e-07
9.36708e-07
9.3674e-07
9.3996e-07
9.39755e-07
9.41606e-07
9.36736e-07
9.36431e-07
9.36559e-07
9.36549e-07
9.3644e-07
9.36741e-07
9.3688e-07
9.4083e-07
9.43052e-07
9.41843e-07
9.36706e-07
9.36548e-07
9.36636e-07
9.36631e-07
9.36557e-07
9.3671e-07
9.36096e-07
9.40798e-07
9.42647e-07
9.41811e-07
9.36707e-07
9.36548e-07
9.36633e-07
9.36631e-07
9.36558e-07
9.36711e-07
9.36251e-07
9.39331e-07
9.41308e-07
9.36736e-07
9.36434e-07
9.36557e-07
9.36548e-07
9.3644e-07
9.36741e-07
9.36282e-07
9.38937e-07
9.42544e-07
9.3996e-07
9.36739e-07
9.36709e-07
9.36709e-07
9.3674e-07
9.34202e-07
9.38043e-07
9.41295e-07
9.42917e-07
9.39756e-07
9.3688e-07
9.36098e-07
9.36252e-07
9.36283e-07
9.38042e-07
9.39058e-07
9.40823e-07
9.40796e-07
9.39331e-07
9.38939e-07
9.41294e-07
9.32937e-07
9.32521e-07
9.33746e-07
9.3161e-07
9.31891e-07
9.31902e-07
9.31302e-07
9.32445e-07
9.32802e-07
9.33747e-07
9.33038e-07
9.26841e-07
9.2683e-07
9.2683e-07
9.26842e-07
9.29871e-07
9.29643e-07
9.31608e-07
9.26841e-07
9.26733e-07
9.2675e-07
9.26747e-07
9.26736e-07
9.26843e-07
9.26738e-07
9.30711e-07
9.32937e-07
9.31891e-07
9.26831e-07
9.26747e-07
9.26754e-07
9.26753e-07
9.26749e-07
9.26831e-07
9.25672e-07
9.30616e-07
9.3252e-07
9.31902e-07
9.2683e-07
9.26746e-07
9.26752e-07
9.26752e-07
9.26749e-07
9.26832e-07
9.25741e-07
9.29148e-07
9.31301e-07
9.26842e-07
9.26734e-07
9.26749e-07
9.26747e-07
9.26736e-07
9.26842e-07
9.25906e-07
9.28761e-07
9.32441e-07
9.29871e-07
9.26843e-07
9.26832e-07
9.26831e-07
9.26843e-07
9.23783e-07
9.27778e-07
9.31131e-07
9.32799e-07
9.29641e-07
9.2674e-07
9.25672e-07
9.25739e-07
9.25903e-07
9.27775e-07
9.28912e-07
9.30714e-07
9.30614e-07
9.2915e-07
9.28761e-07
9.31135e-07
9.22945e-07
9.22525e-07
9.2376e-07
9.21655e-07
9.21959e-07
9.21973e-07
9.21331e-07
9.22456e-07
9.22808e-07
9.23757e-07
9.2311e-07
9.16897e-07
9.16897e-07
9.16897e-07
9.16898e-07
9.19884e-07
9.19647e-07
9.21654e-07
9.16897e-07
9.16854e-07
9.16871e-07
9.16869e-07
9.16856e-07
9.16898e-07
9.1672e-07
9.20722e-07
9.22946e-07
9.21958e-07
9.16896e-07
9.1687e-07
9.16874e-07
9.16872e-07
9.16871e-07
9.16898e-07
9.15602e-07
9.20609e-07
9.22526e-07
9.2197e-07
9.16897e-07
9.1687e-07
9.16873e-07
9.16872e-07
9.16872e-07
9.16898e-07
9.15678e-07
9.19147e-07
9.21328e-07
9.16897e-07
9.16855e-07
9.1687e-07
9.16868e-07
9.16856e-07
9.16899e-07
9.15883e-07
9.18753e-07
9.22457e-07
9.19884e-07
9.16898e-07
9.16897e-07
9.16897e-07
9.16898e-07
9.13743e-07
9.17782e-07
9.21132e-07
9.22807e-07
9.19647e-07
9.16721e-07
9.15602e-07
9.15675e-07
9.1588e-07
9.17779e-07
9.18918e-07
9.2072e-07
9.20608e-07
9.19146e-07
9.18754e-07
9.21132e-07
9.12999e-07
9.12578e-07
9.1381e-07
9.11718e-07
9.12028e-07
9.1204e-07
9.11382e-07
9.12509e-07
9.12857e-07
9.1381e-07
9.1318e-07
9.06959e-07
9.06959e-07
9.0696e-07
9.06958e-07
9.09933e-07
9.09695e-07
9.11717e-07
9.06958e-07
9.06945e-07
9.06949e-07
9.0695e-07
9.06944e-07
9.06957e-07
9.06768e-07
9.10777e-07
9.12998e-07
9.12028e-07
9.0696e-07
9.0695e-07
9.06955e-07
9.06955e-07
9.0695e-07
9.0696e-07
9.05632e-07
9.10656e-07
9.12578e-07
9.1204e-07
9.06961e-07
9.06951e-07
9.06954e-07
9.06955e-07
9.0695e-07
9.0696e-07
9.05709e-07
9.09195e-07
9.11384e-07
9.06958e-07
9.06945e-07
9.06949e-07
9.06949e-07
9.06945e-07
9.06958e-07
9.05928e-07
9.088e-07
9.12507e-07
9.09933e-07
9.06958e-07
9.0696e-07
9.0696e-07
9.06958e-07
9.03779e-07
9.0783e-07
9.11179e-07
9.12856e-07
9.09696e-07
9.06768e-07
9.05631e-07
9.05705e-07
9.05924e-07
9.07826e-07
9.08964e-07
9.10773e-07
9.10654e-07
9.09194e-07
9.08799e-07
9.11176e-07
9.03063e-07
9.02642e-07
9.03875e-07
9.01788e-07
9.021e-07
9.02108e-07
9.01446e-07
9.02572e-07
9.02921e-07
9.03875e-07
9.0325e-07
8.97022e-07
8.97026e-07
8.97025e-07
8.97022e-07
8.99996e-07
8.99758e-07
9.01787e-07
8.97023e-07
8.97018e-07
8.97022e-07
8.97022e-07
8.97018e-07
8.97024e-07
8.96827e-07
9.00838e-07
9.03062e-07
9.02101e-07
8.97025e-07
8.9702e-07
8.97024e-07
8.97025e-07
8.97019e-07
8.97024e-07
8.95687e-07
9.00717e-07
9.02641e-07
9.02106e-07
8.97024e-07
8.9702e-07
8.97023e-07
8.97025e-07
8.97019e-07
8.97024e-07
8.95768e-07
8.99257e-07
9.01447e-07
8.97023e-07
8.97019e-07
8.97022e-07
8.97022e-07
8.97019e-07
8.97023e-07
8.95992e-07
8.98863e-07
9.02571e-07
8.99996e-07
8.97022e-07
8.97025e-07
8.97025e-07
8.97022e-07
8.93842e-07
8.97895e-07
9.01242e-07
9.0292e-07
8.99758e-07
8.96829e-07
8.95688e-07
8.95769e-07
8.95991e-07
8.97892e-07
8.99027e-07
9.00835e-07
9.00718e-07
8.99257e-07
8.98861e-07
9.01239e-07
8.93131e-07
8.92709e-07
8.93943e-07
8.91856e-07
8.92169e-07
8.92174e-07
8.91512e-07
8.92639e-07
8.92988e-07
8.93943e-07
8.93319e-07
8.8709e-07
8.8709e-07
8.8709e-07
8.8709e-07
8.90063e-07
8.89827e-07
8.91855e-07
8.87089e-07
8.87088e-07
8.87089e-07
8.87089e-07
8.87089e-07
8.8709e-07
8.86897e-07
8.90906e-07
8.93128e-07
8.92169e-07
8.8709e-07
8.8709e-07
8.8709e-07
8.87089e-07
8.8709e-07
8.8709e-07
8.85754e-07
8.90786e-07
8.92708e-07
8.92174e-07
8.87089e-07
8.87089e-07
8.8709e-07
8.87089e-07
8.8709e-07
8.87091e-07
8.85835e-07
8.89324e-07
8.91513e-07
8.87089e-07
8.87089e-07
8.8709e-07
8.87089e-07
8.87089e-07
8.8709e-07
8.86061e-07
8.88929e-07
8.92638e-07
8.90063e-07
8.87089e-07
8.87089e-07
8.8709e-07
8.8709e-07
8.83911e-07
8.87962e-07
8.91308e-07
8.92987e-07
8.89825e-07
8.86895e-07
8.85751e-07
8.85832e-07
8.86057e-07
8.8796e-07
8.89095e-07
8.90903e-07
8.90783e-07
8.89323e-07
8.88927e-07
8.91306e-07
8.83198e-07
8.82777e-07
8.8401e-07
8.81924e-07
8.82238e-07
8.82243e-07
8.8158e-07
8.82707e-07
8.83056e-07
8.84011e-07
8.83388e-07
8.77157e-07
8.77158e-07
8.77158e-07
8.77158e-07
8.8013e-07
8.79894e-07
8.81923e-07
8.77158e-07
8.77157e-07
8.77157e-07
8.77157e-07
8.77157e-07
8.77156e-07
8.76964e-07
8.80973e-07
8.83196e-07
8.82237e-07
8.77157e-07
8.77156e-07
8.77158e-07
8.77157e-07
8.77158e-07
8.77157e-07
8.7582e-07
8.80853e-07
8.82776e-07
8.82243e-07
8.77158e-07
8.77158e-07
8.77159e-07
8.77158e-07
8.77158e-07
8.77157e-07
8.75902e-07
8.79391e-07
8.81581e-07
8.77156e-07
8.77156e-07
8.77155e-07
8.77156e-07
8.77156e-07
8.77158e-07
8.76129e-07
8.78997e-07
8.82706e-07
8.8013e-07
8.77158e-07
8.77158e-07
8.77158e-07
8.77158e-07
8.73979e-07
8.7803e-07
8.81375e-07
8.83055e-07
8.79893e-07
8.76963e-07
8.75818e-07
8.75899e-07
8.76124e-07
8.78027e-07
8.79162e-07
8.80971e-07
8.80851e-07
8.7939e-07
8.78995e-07
8.81374e-07
8.73266e-07
8.72844e-07
8.74079e-07
8.71993e-07
8.72307e-07
8.72311e-07
8.71648e-07
8.72775e-07
8.73125e-07
8.74079e-07
8.73457e-07
8.67226e-07
8.67226e-07
8.67226e-07
8.67226e-07
8.70198e-07
8.69963e-07
8.71992e-07
8.67225e-07
8.67225e-07
8.67225e-07
8.67226e-07
8.67225e-07
8.67225e-07
8.67032e-07
8.71041e-07
8.73265e-07
8.72306e-07
8.67226e-07
8.67227e-07
8.67226e-07
8.67227e-07
8.67226e-07
8.67226e-07
8.65889e-07
8.70921e-07
8.72844e-07
8.72311e-07
8.67226e-07
8.67225e-07
8.67225e-07
8.67226e-07
8.67224e-07
8.67226e-07
8.65971e-07
8.69459e-07
8.71648e-07
8.67226e-07
8.67225e-07
8.67226e-07
8.67226e-07
8.67225e-07
8.67226e-07
8.66197e-07
8.69064e-07
8.72774e-07
8.70197e-07
8.67225e-07
8.67225e-07
8.67226e-07
8.67225e-07
8.64049e-07
8.68098e-07
8.71443e-07
8.73124e-07
8.69962e-07
8.67031e-07
8.65885e-07
8.65967e-07
8.66193e-07
8.68096e-07
8.69231e-07
8.71039e-07
8.70919e-07
8.69459e-07
8.69063e-07
8.71441e-07
8.63334e-07
8.62913e-07
8.64149e-07
8.62062e-07
8.62376e-07
8.6238e-07
8.61716e-07
8.62845e-07
8.63194e-07
8.64149e-07
8.63525e-07
8.57294e-07
8.57294e-07
8.57294e-07
8.57294e-07
8.60267e-07
8.60032e-07
8.62061e-07
8.57294e-07
8.57295e-07
8.57295e-07
8.57295e-07
8.57295e-07
8.57294e-07
8.57102e-07
8.61111e-07
8.63334e-07
8.62375e-07
8.57294e-07
8.57295e-07
8.57295e-07
8.57295e-07
8.57295e-07
8.57295e-07
8.55958e-07
8.60991e-07
8.62913e-07
8.6238e-07
8.57294e-07
8.57295e-07
8.57295e-07
8.57295e-07
8.57295e-07
8.57295e-07
8.56041e-07
8.59529e-07
8.61717e-07
8.57294e-07
8.57295e-07
8.57295e-07
8.57295e-07
8.57295e-07
8.57294e-07
8.56267e-07
8.59134e-07
8.62843e-07
8.60266e-07
8.57294e-07
8.57295e-07
8.57295e-07
8.57294e-07
8.54118e-07
8.58168e-07
8.61512e-07
8.63193e-07
8.60031e-07
8.57101e-07
8.55954e-07
8.56036e-07
8.56263e-07
8.58166e-07
8.593e-07
8.61109e-07
8.60988e-07
8.59528e-07
8.59132e-07
8.61511e-07
8.53404e-07
8.52982e-07
8.54217e-07
8.52131e-07
8.52445e-07
8.52449e-07
8.51786e-07
8.52913e-07
8.53263e-07
8.54218e-07
8.53595e-07
8.47364e-07
8.47364e-07
8.47363e-07
8.47363e-07
8.50337e-07
8.50101e-07
8.5213e-07
8.47363e-07
8.47364e-07
8.47364e-07
8.47364e-07
8.47364e-07
8.47364e-07
8.47171e-07
8.5118e-07
8.53403e-07
8.52445e-07
8.47364e-07
8.47364e-07
8.47364e-07
8.47364e-07
8.47364e-07
8.47364e-07
8.46028e-07
8.5106e-07
8.52982e-07
8.5245e-07
8.47364e-07
8.47364e-07
8.47364e-07
8.47364e-07
8.47364e-07
8.47364e-07
8.4611e-07
8.49599e-07
8.51787e-07
8.47364e-07
8.47364e-07
8.47364e-07
8.47364e-07
8.47364e-07
8.47364e-07
8.46336e-07
8.49203e-07
8.52913e-07
8.50335e-07
8.47364e-07
8.47363e-07
8.47363e-07
8.47364e-07
8.44187e-07
8.48237e-07
8.51581e-07
8.53263e-07
8.501e-07
8.4717e-07
8.46024e-07
8.46106e-07
8.46332e-07
8.48235e-07
8.49369e-07
8.51178e-07
8.51058e-07
8.49597e-07
8.49201e-07
8.5158e-07
8.43473e-07
8.43051e-07
8.44288e-07
8.422e-07
8.42515e-07
8.42518e-07
8.41857e-07
8.42981e-07
8.43332e-07
8.44287e-07
8.43665e-07
8.37433e-07
8.37433e-07
8.37433e-07
8.37433e-07
8.40406e-07
8.40169e-07
8.42199e-07
8.37433e-07
8.37433e-07
8.37433e-07
8.37433e-07
8.37433e-07
8.37433e-07
8.3724e-07
8.41249e-07
8.43472e-07
8.42514e-07
8.37433e-07
8.37433e-07
8.37433e-07
8.37433e-07
8.37433e-07
8.37433e-07
8.36097e-07
8.41129e-07
8.43051e-07
8.42519e-07
8.37433e-07
8.37433e-07
8.37432e-07
8.37432e-07
8.37433e-07
8.37433e-07
8.36179e-07
8.39667e-07
8.41855e-07
8.37433e-07
8.37433e-07
8.37433e-07
8.37433e-07
8.37433e-07
8.37433e-07
8.36405e-07
8.39272e-07
8.42982e-07
8.40404e-07
8.37433e-07
8.37433e-07
8.37433e-07
8.37433e-07
8.34256e-07
8.38306e-07
8.4165e-07
8.43332e-07
8.40169e-07
8.37239e-07
8.36093e-07
8.36174e-07
8.36401e-07
8.38304e-07
8.39439e-07
8.41247e-07
8.41127e-07
8.39666e-07
8.3927e-07
8.41649e-07
8.33541e-07
8.3312e-07
8.34355e-07
8.32269e-07
8.32583e-07
8.32587e-07
8.31925e-07
8.33049e-07
8.334e-07
8.34356e-07
8.33733e-07
8.27501e-07
8.27501e-07
8.27501e-07
8.27502e-07
8.30475e-07
8.30238e-07
8.32268e-07
8.27501e-07
8.27501e-07
8.27501e-07
8.27501e-07
8.27501e-07
8.27501e-07
8.27308e-07
8.31318e-07
8.33541e-07
8.32583e-07
8.27501e-07
8.27501e-07
8.27501e-07
8.27501e-07
8.27501e-07
8.27501e-07
8.26165e-07
8.31198e-07
8.3312e-07
8.32588e-07
8.27501e-07
8.27501e-07
8.27501e-07
8.27501e-07
8.27501e-07
8.27501e-07
8.26248e-07
8.29736e-07
8.31924e-07
8.27501e-07
8.27501e-07
8.27501e-07
8.27501e-07
8.27501e-07
8.27501e-07
8.26474e-07
8.2934e-07
8.33051e-07
8.30473e-07
8.27501e-07
8.27501e-07
8.27501e-07
8.27501e-07
8.24325e-07
8.28375e-07
8.31718e-07
8.33401e-07
8.30238e-07
8.27308e-07
8.26162e-07
8.26243e-07
8.2647e-07
8.28372e-07
8.29507e-07
8.31316e-07
8.31196e-07
8.29735e-07
8.29339e-07
8.31718e-07
8.2361e-07
8.23189e-07
8.24424e-07
8.22338e-07
8.22652e-07
8.22656e-07
8.21994e-07
8.2312e-07
8.2347e-07
8.24425e-07
8.23802e-07
8.1757e-07
8.1757e-07
8.1757e-07
8.1757e-07
8.20543e-07
8.20307e-07
8.22337e-07
8.1757e-07
8.1757e-07
8.1757e-07
8.1757e-07
8.1757e-07
8.1757e-07
8.17378e-07
8.21387e-07
8.2361e-07
8.22652e-07
8.1757e-07
8.1757e-07
8.1757e-07
8.1757e-07
8.1757e-07
8.1757e-07
8.16234e-07
8.21266e-07
8.23189e-07
8.22656e-07
8.1757e-07
8.1757e-07
8.1757e-07
8.1757e-07
8.1757e-07
8.1757e-07
8.16317e-07
8.19805e-07
8.21993e-07
8.1757e-07
8.1757e-07
8.1757e-07
8.1757e-07
8.1757e-07
8.1757e-07
8.16543e-07
8.19409e-07
8.23119e-07
8.20542e-07
8.1757e-07
8.1757e-07
8.1757e-07
8.1757e-07
8.14394e-07
8.18444e-07
8.21787e-07
8.23469e-07
8.20307e-07
8.17377e-07
8.16231e-07
8.16312e-07
8.16539e-07
8.18441e-07
8.19576e-07
8.21385e-07
8.21265e-07
8.19804e-07
8.19408e-07
8.21787e-07
8.13679e-07
8.13258e-07
8.14493e-07
8.12407e-07
8.12721e-07
8.12725e-07
8.12062e-07
8.13188e-07
8.13539e-07
8.14494e-07
8.13871e-07
8.07639e-07
8.07639e-07
8.07639e-07
8.07639e-07
8.10612e-07
8.10376e-07
8.12406e-07
8.07639e-07
8.07639e-07
8.07639e-07
8.07639e-07
8.07639e-07
8.07639e-07
8.07447e-07
8.11456e-07
8.13679e-07
8.12721e-07
8.07639e-07
8.07639e-07
8.07639e-07
8.07639e-07
8.07639e-07
8.07639e-07
8.06304e-07
8.11336e-07
8.13258e-07
8.12726e-07
8.07639e-07
8.07639e-07
8.07639e-07
8.07639e-07
8.07639e-07
8.0764e-07
8.06386e-07
8.09874e-07
8.12062e-07
8.07639e-07
8.0764e-07
8.07639e-07
8.07639e-07
8.0764e-07
8.0764e-07
8.06612e-07
8.09479e-07
8.13189e-07
8.10611e-07
8.0764e-07
8.0764e-07
8.0764e-07
8.0764e-07
8.04463e-07
8.08513e-07
8.11857e-07
8.13539e-07
8.10376e-07
8.07446e-07
8.063e-07
8.06381e-07
8.06608e-07
8.08511e-07
8.09645e-07
8.11454e-07
8.11334e-07
8.09873e-07
8.09477e-07
8.11856e-07
8.03749e-07
8.03327e-07
8.04562e-07
8.02476e-07
8.0279e-07
8.02794e-07
8.02131e-07
8.03258e-07
8.03608e-07
8.04563e-07
8.0394e-07
7.97708e-07
7.97708e-07
7.97709e-07
7.97708e-07
8.00681e-07
8.00445e-07
8.02475e-07
7.97708e-07
7.97708e-07
7.97708e-07
7.97708e-07
7.97708e-07
7.97708e-07
7.97515e-07
8.01525e-07
8.03748e-07
8.0279e-07
7.97708e-07
7.97708e-07
7.97708e-07
7.97708e-07
7.97708e-07
7.97708e-07
7.96372e-07
8.01404e-07
8.03327e-07
8.02794e-07
7.97708e-07
7.97708e-07
7.97708e-07
7.97708e-07
7.97708e-07
7.97708e-07
7.96455e-07
7.99943e-07
8.02131e-07
7.97708e-07
7.97708e-07
7.97708e-07
7.97708e-07
7.97708e-07
7.97708e-07
7.96681e-07
7.99548e-07
8.03258e-07
8.0068e-07
7.97708e-07
7.97708e-07
7.97708e-07
7.97708e-07
7.94532e-07
7.98582e-07
8.01926e-07
8.03608e-07
8.00445e-07
7.97515e-07
7.96369e-07
7.9645e-07
7.96677e-07
7.9858e-07
7.99714e-07
8.01523e-07
8.01403e-07
7.99942e-07
7.99546e-07
8.01925e-07
7.93817e-07
7.93395e-07
7.9463e-07
7.92544e-07
7.92858e-07
7.92862e-07
7.922e-07
7.93326e-07
7.93676e-07
7.94631e-07
7.94008e-07
7.87776e-07
7.87776e-07
7.87776e-07
7.87776e-07
7.90749e-07
7.90514e-07
7.92543e-07
7.87776e-07
7.87776e-07
7.87776e-07
7.87776e-07
7.87776e-07
7.87776e-07
7.87583e-07
7.91593e-07
7.93816e-07
7.92858e-07
7.87776e-07
7.87777e-07
7.87777e-07
7.87776e-07
7.87777e-07
7.87776e-07
7.8644e-07
7.91473e-07
7.93395e-07
7.92863e-07
7.87777e-07
7.87777e-07
7.87777e-07
7.87777e-07
7.87777e-07
7.87776e-07
7.86523e-07
7.90011e-07
7.92199e-07
7.87777e-07
7.87777e-07
7.87777e-07
7.87777e-07
7.87777e-07
7.87776e-07
7.86749e-07
7.89616e-07
7.93326e-07
7.90748e-07
7.87777e-07
7.87777e-07
7.87777e-07
7.87777e-07
7.846e-07
7.8865e-07
7.91994e-07
7.93676e-07
7.90513e-07
7.87583e-07
7.86437e-07
7.86519e-07
7.86745e-07
7.88648e-07
7.89782e-07
7.91591e-07
7.91471e-07
7.90011e-07
7.89614e-07
7.91993e-07
7.83885e-07
7.83463e-07
7.84699e-07
7.82613e-07
7.82927e-07
7.8293e-07
7.82268e-07
7.83394e-07
7.83744e-07
7.84699e-07
7.84076e-07
7.77845e-07
7.77845e-07
7.77845e-07
7.77845e-07
7.80818e-07
7.80582e-07
7.82612e-07
7.77845e-07
7.77845e-07
7.77845e-07
7.77845e-07
7.77845e-07
7.77845e-07
7.77651e-07
7.81661e-07
7.83884e-07
7.82926e-07
7.77845e-07
7.77845e-07
7.77845e-07
7.77845e-07
7.77845e-07
7.77845e-07
7.76509e-07
7.81541e-07
7.83463e-07
7.82931e-07
7.77845e-07
7.77845e-07
7.77845e-07
7.77845e-07
7.77845e-07
7.77845e-07
7.76591e-07
7.8008e-07
7.82268e-07
7.77845e-07
7.77845e-07
7.77845e-07
7.77845e-07
7.77845e-07
7.77845e-07
7.76817e-07
7.79684e-07
7.83394e-07
7.80817e-07
7.77845e-07
7.77845e-07
7.77845e-07
7.77845e-07
7.74669e-07
7.78718e-07
7.82062e-07
7.83744e-07
7.80582e-07
7.77651e-07
7.76505e-07
7.76586e-07
7.76813e-07
7.78716e-07
7.79851e-07
7.81659e-07
7.81539e-07
7.80078e-07
7.79681e-07
7.82061e-07
7.73954e-07
7.73532e-07
7.74768e-07
7.72681e-07
7.72996e-07
7.72999e-07
7.72337e-07
7.73463e-07
7.73813e-07
7.74768e-07
7.74145e-07
7.67914e-07
7.67914e-07
7.67914e-07
7.67914e-07
7.70887e-07
7.70651e-07
7.72681e-07
7.67914e-07
7.67914e-07
7.67914e-07
7.67914e-07
7.67914e-07
7.67914e-07
7.6772e-07
7.7173e-07
7.73953e-07
7.72995e-07
7.67914e-07
7.67914e-07
7.67914e-07
7.67914e-07
7.67914e-07
7.67914e-07
7.66578e-07
7.7161e-07
7.73532e-07
7.73e-07
7.67914e-07
7.67914e-07
7.67914e-07
7.67914e-07
7.67914e-07
7.67914e-07
7.6666e-07
7.70149e-07
7.72337e-07
7.67914e-07
7.67914e-07
7.67914e-07
7.67914e-07
7.67914e-07
7.67914e-07
7.66886e-07
7.69753e-07
7.73463e-07
7.70886e-07
7.67914e-07
7.67914e-07
7.67914e-07
7.67914e-07
7.64738e-07
7.68788e-07
7.72131e-07
7.73813e-07
7.70651e-07
7.67721e-07
7.66576e-07
7.66657e-07
7.66883e-07
7.68785e-07
7.6992e-07
7.71728e-07
7.71609e-07
7.70148e-07
7.69751e-07
7.72131e-07
7.64023e-07
7.63602e-07
7.64837e-07
7.62751e-07
7.63065e-07
7.63069e-07
7.62406e-07
7.63532e-07
7.63882e-07
7.64837e-07
7.64214e-07
7.57983e-07
7.57983e-07
7.57983e-07
7.57983e-07
7.60956e-07
7.6072e-07
7.6275e-07
7.57983e-07
7.57983e-07
7.57983e-07
7.57983e-07
7.57983e-07
7.57983e-07
7.5779e-07
7.61799e-07
7.64023e-07
7.63064e-07
7.57983e-07
7.57983e-07
7.57983e-07
7.57983e-07
7.57983e-07
7.57983e-07
7.56647e-07
7.61679e-07
7.63602e-07
7.63069e-07
7.57983e-07
7.57983e-07
7.57983e-07
7.57983e-07
7.57983e-07
7.57983e-07
7.56729e-07
7.60218e-07
7.62406e-07
7.57983e-07
7.57983e-07
7.57983e-07
7.57983e-07
7.57983e-07
7.57983e-07
7.56956e-07
7.59822e-07
7.63532e-07
7.60955e-07
7.57983e-07
7.57983e-07
7.57983e-07
7.57983e-07
7.54807e-07
7.58857e-07
7.622e-07
7.63882e-07
7.6072e-07
7.5779e-07
7.56645e-07
7.56726e-07
7.56952e-07
7.58854e-07
7.59989e-07
7.61797e-07
7.61678e-07
7.60217e-07
7.5982e-07
7.622e-07
7.54092e-07
7.5367e-07
7.54905e-07
7.52819e-07
7.53134e-07
7.53137e-07
7.52474e-07
7.536e-07
7.53951e-07
7.54906e-07
7.54283e-07
7.48052e-07
7.48052e-07
7.48052e-07
7.48052e-07
7.51025e-07
7.50789e-07
7.52818e-07
7.48052e-07
7.48052e-07
7.48052e-07
7.48052e-07
7.48052e-07
7.48052e-07
7.47858e-07
7.51868e-07
7.54091e-07
7.53133e-07
7.48052e-07
7.48052e-07
7.48052e-07
7.48052e-07
7.48052e-07
7.48052e-07
7.46716e-07
7.51748e-07
7.5367e-07
7.53138e-07
7.48052e-07
7.48052e-07
7.48052e-07
7.48052e-07
7.48052e-07
7.48052e-07
7.46798e-07
7.50287e-07
7.52475e-07
7.48052e-07
7.48052e-07
7.48052e-07
7.48052e-07
7.48052e-07
7.48052e-07
7.47024e-07
7.49891e-07
7.53601e-07
7.51023e-07
7.48052e-07
7.48052e-07
7.48052e-07
7.48052e-07
7.44875e-07
7.48925e-07
7.52269e-07
7.53951e-07
7.50789e-07
7.47858e-07
7.46713e-07
7.46794e-07
7.4702e-07
7.48923e-07
7.50058e-07
7.51866e-07
7.51747e-07
7.50285e-07
7.49888e-07
7.52268e-07
7.4416e-07
7.43739e-07
7.44974e-07
7.42887e-07
7.43202e-07
7.43206e-07
7.42542e-07
7.43668e-07
7.44019e-07
7.44974e-07
7.44351e-07
7.3812e-07
7.3812e-07
7.3812e-07
7.3812e-07
7.41093e-07
7.40857e-07
7.42887e-07
7.3812e-07
7.3812e-07
7.3812e-07
7.3812e-07
7.3812e-07
7.3812e-07
7.37927e-07
7.41936e-07
7.44159e-07
7.43201e-07
7.3812e-07
7.3812e-07
7.3812e-07
7.3812e-07
7.3812e-07
7.3812e-07
7.36784e-07
7.41816e-07
7.43739e-07
7.43206e-07
7.3812e-07
7.3812e-07
7.3812e-07
7.3812e-07
7.3812e-07
7.3812e-07
7.36867e-07
7.40355e-07
7.42543e-07
7.3812e-07
7.3812e-07
7.3812e-07
7.3812e-07
7.3812e-07
7.3812e-07
7.37093e-07
7.39959e-07
7.43669e-07
7.41092e-07
7.3812e-07
7.3812e-07
7.3812e-07
7.3812e-07
7.34944e-07
7.38994e-07
7.42337e-07
7.44019e-07
7.40857e-07
7.37927e-07
7.36782e-07
7.36863e-07
7.37089e-07
7.38991e-07
7.40126e-07
7.41934e-07
7.41815e-07
7.40354e-07
7.39957e-07
7.42336e-07
7.34229e-07
7.33808e-07
7.35043e-07
7.32956e-07
7.33271e-07
7.33275e-07
7.32612e-07
7.33737e-07
7.34087e-07
7.35044e-07
7.3442e-07
7.28189e-07
7.28189e-07
7.28189e-07
7.28189e-07
7.31162e-07
7.30926e-07
7.32956e-07
7.28189e-07
7.28189e-07
7.28189e-07
7.28189e-07
7.28189e-07
7.28189e-07
7.27996e-07
7.32006e-07
7.34228e-07
7.3327e-07
7.28189e-07
7.28189e-07
7.28189e-07
7.28189e-07
7.28189e-07
7.28189e-07
7.26853e-07
7.31885e-07
7.33808e-07
7.33275e-07
7.28189e-07
7.28189e-07
7.28189e-07
7.28189e-07
7.28189e-07
7.28189e-07
7.26936e-07
7.30424e-07
7.32612e-07
7.28189e-07
7.28189e-07
7.28189e-07
7.28189e-07
7.28189e-07
7.28189e-07
7.27162e-07
7.30028e-07
7.33738e-07
7.31161e-07
7.28189e-07
7.28189e-07
7.28189e-07
7.28189e-07
7.25013e-07
7.29063e-07
7.32406e-07
7.34088e-07
7.30926e-07
7.27996e-07
7.26851e-07
7.26932e-07
7.27158e-07
7.2906e-07
7.30195e-07
7.32003e-07
7.31884e-07
7.30423e-07
7.30026e-07
7.32405e-07
7.24298e-07
7.23877e-07
7.25112e-07
7.23026e-07
7.2334e-07
7.23344e-07
7.22681e-07
7.23807e-07
7.24157e-07
7.25113e-07
7.2449e-07
7.18258e-07
7.18258e-07
7.18258e-07
7.18258e-07
7.21232e-07
7.20995e-07
7.23025e-07
7.18258e-07
7.18258e-07
7.18258e-07
7.18258e-07
7.18258e-07
7.18258e-07
7.18065e-07
7.22076e-07
7.24298e-07
7.2334e-07
7.18258e-07
7.18258e-07
7.18258e-07
7.18258e-07
7.18258e-07
7.18258e-07
7.16922e-07
7.21954e-07
7.23877e-07
7.23345e-07
7.18258e-07
7.18258e-07
7.18258e-07
7.18258e-07
7.18258e-07
7.18258e-07
7.17005e-07
7.20493e-07
7.22681e-07
7.18258e-07
7.18259e-07
7.18258e-07
7.18258e-07
7.18259e-07
7.18258e-07
7.17231e-07
7.20098e-07
7.23808e-07
7.2123e-07
7.18258e-07
7.18258e-07
7.18258e-07
7.18258e-07
7.15082e-07
7.19132e-07
7.22476e-07
7.24158e-07
7.20995e-07
7.18065e-07
7.1692e-07
7.17001e-07
7.17227e-07
7.1913e-07
7.20264e-07
7.22073e-07
7.21953e-07
7.20492e-07
7.20095e-07
7.22474e-07
7.14368e-07
7.13946e-07
7.15181e-07
7.13095e-07
7.13409e-07
7.13413e-07
7.12749e-07
7.13876e-07
7.14226e-07
7.15182e-07
7.14559e-07
7.08327e-07
7.08327e-07
7.08327e-07
7.08327e-07
7.11301e-07
7.11064e-07
7.13094e-07
7.08327e-07
7.08327e-07
7.08327e-07
7.08327e-07
7.08327e-07
7.08327e-07
7.08134e-07
7.12145e-07
7.14367e-07
7.13409e-07
7.08327e-07
7.08327e-07
7.08327e-07
7.08327e-07
7.08327e-07
7.08327e-07
7.06991e-07
7.12023e-07
7.13946e-07
7.13413e-07
7.08327e-07
7.08327e-07
7.08327e-07
7.08327e-07
7.08327e-07
7.08327e-07
7.07074e-07
7.10562e-07
7.1275e-07
7.08327e-07
7.08327e-07
7.08327e-07
7.08327e-07
7.08327e-07
7.08327e-07
7.073e-07
7.10166e-07
7.13877e-07
7.11299e-07
7.08327e-07
7.08327e-07
7.08327e-07
7.08327e-07
7.05151e-07
7.09201e-07
7.12544e-07
7.14226e-07
7.11064e-07
7.08134e-07
7.06989e-07
7.0707e-07
7.07296e-07
7.09198e-07
7.10333e-07
7.12142e-07
7.12022e-07
7.10561e-07
7.10164e-07
7.12543e-07
7.04436e-07
7.04015e-07
7.0525e-07
7.03163e-07
7.03478e-07
7.03482e-07
7.02818e-07
7.03945e-07
7.04295e-07
7.05251e-07
7.04628e-07
6.98396e-07
6.98396e-07
6.98396e-07
6.98396e-07
7.0137e-07
7.01133e-07
7.03163e-07
6.98396e-07
6.98396e-07
6.98396e-07
6.98396e-07
6.98396e-07
6.98396e-07
6.98203e-07
7.02214e-07
7.04436e-07
7.03478e-07
6.98396e-07
6.98396e-07
6.98396e-07
6.98396e-07
6.98396e-07
6.98396e-07
6.9706e-07
7.02092e-07
7.04015e-07
7.03482e-07
6.98396e-07
6.98396e-07
6.98396e-07
6.98396e-07
6.98396e-07
6.98396e-07
6.97143e-07
7.00631e-07
7.02819e-07
6.98396e-07
6.98397e-07
6.98397e-07
6.98397e-07
6.98397e-07
6.98396e-07
6.97369e-07
7.00235e-07
7.03945e-07
7.01368e-07
6.98396e-07
6.98396e-07
6.98396e-07
6.98396e-07
6.9522e-07
6.9927e-07
7.02613e-07
7.04295e-07
7.01133e-07
6.98203e-07
6.97058e-07
6.97139e-07
6.97365e-07
6.99267e-07
7.00402e-07
7.0221e-07
7.02091e-07
7.0063e-07
7.00233e-07
7.02612e-07
6.94506e-07
6.94084e-07
6.95319e-07
6.93232e-07
6.93547e-07
6.93551e-07
6.92887e-07
6.94014e-07
6.94364e-07
6.9532e-07
6.94697e-07
6.88465e-07
6.88465e-07
6.88465e-07
6.88465e-07
6.91439e-07
6.91202e-07
6.93232e-07
6.88465e-07
6.88465e-07
6.88465e-07
6.88465e-07
6.88465e-07
6.88465e-07
6.88272e-07
6.92283e-07
6.94505e-07
6.93547e-07
6.88465e-07
6.88465e-07
6.88465e-07
6.88465e-07
6.88465e-07
6.88465e-07
6.87129e-07
6.92161e-07
6.94084e-07
6.93551e-07
6.88465e-07
6.88465e-07
6.88465e-07
6.88465e-07
6.88465e-07
6.88465e-07
6.87212e-07
6.907e-07
6.92888e-07
6.88465e-07
6.88465e-07
6.88465e-07
6.88465e-07
6.88465e-07
6.88465e-07
6.87438e-07
6.90305e-07
6.94015e-07
6.91437e-07
6.88465e-07
6.88465e-07
6.88465e-07
6.88465e-07
6.85289e-07
6.89339e-07
6.92682e-07
6.94365e-07
6.91202e-07
6.88271e-07
6.87126e-07
6.87207e-07
6.87433e-07
6.89336e-07
6.90471e-07
6.9228e-07
6.9216e-07
6.90699e-07
6.90302e-07
6.92681e-07
6.84574e-07
6.84153e-07
6.85388e-07
6.83301e-07
6.83616e-07
6.83619e-07
6.82956e-07
6.84083e-07
6.84433e-07
6.85388e-07
6.84766e-07
6.78534e-07
6.78534e-07
6.78534e-07
6.78534e-07
6.81506e-07
6.81271e-07
6.83301e-07
6.78534e-07
6.78534e-07
6.78534e-07
6.78534e-07
6.78534e-07
6.78534e-07
6.7834e-07
6.82351e-07
6.84574e-07
6.83615e-07
6.78534e-07
6.78534e-07
6.78534e-07
6.78534e-07
6.78534e-07
6.78534e-07
6.77198e-07
6.8223e-07
6.84153e-07
6.8362e-07
6.78534e-07
6.78534e-07
6.78534e-07
6.78534e-07
6.78534e-07
6.78534e-07
6.7728e-07
6.80769e-07
6.82957e-07
6.78534e-07
6.78534e-07
6.78534e-07
6.78534e-07
6.78534e-07
6.78534e-07
6.77506e-07
6.80373e-07
6.84083e-07
6.81506e-07
6.78534e-07
6.78534e-07
6.78534e-07
6.78534e-07
6.75358e-07
6.79407e-07
6.82751e-07
6.84433e-07
6.81271e-07
6.7834e-07
6.77195e-07
6.77276e-07
6.77502e-07
6.79405e-07
6.8054e-07
6.82348e-07
6.82229e-07
6.80767e-07
6.8037e-07
6.8275e-07
6.74643e-07
6.74221e-07
6.75456e-07
6.7337e-07
6.73684e-07
6.73688e-07
6.73024e-07
6.7415e-07
6.74501e-07
6.75457e-07
6.74834e-07
6.68602e-07
6.68603e-07
6.68602e-07
6.68602e-07
6.71574e-07
6.71339e-07
6.73369e-07
6.68602e-07
6.68602e-07
6.68602e-07
6.68602e-07
6.68602e-07
6.68602e-07
6.68409e-07
6.7242e-07
6.74642e-07
6.73684e-07
6.68602e-07
6.68602e-07
6.68602e-07
6.68602e-07
6.68602e-07
6.68602e-07
6.67266e-07
6.72298e-07
6.74221e-07
6.73688e-07
6.68602e-07
6.68602e-07
6.68602e-07
6.68602e-07
6.68602e-07
6.68602e-07
6.67349e-07
6.70837e-07
6.73025e-07
6.68602e-07
6.68602e-07
6.68602e-07
6.68602e-07
6.68602e-07
6.68602e-07
6.67575e-07
6.70441e-07
6.74152e-07
6.71574e-07
6.68602e-07
6.68602e-07
6.68602e-07
6.68602e-07
6.65426e-07
6.69476e-07
6.72819e-07
6.74501e-07
6.71339e-07
6.68408e-07
6.67264e-07
6.67345e-07
6.67571e-07
6.69473e-07
6.70608e-07
6.72416e-07
6.72297e-07
6.70836e-07
6.70439e-07
6.72818e-07
6.64712e-07
6.6429e-07
6.65525e-07
6.63438e-07
6.63752e-07
6.63756e-07
6.63093e-07
6.64219e-07
6.6457e-07
6.65526e-07
6.64902e-07
6.58671e-07
6.58671e-07
6.58671e-07
6.58671e-07
6.61643e-07
6.61408e-07
6.63438e-07
6.58671e-07
6.58671e-07
6.58671e-07
6.58671e-07
6.58671e-07
6.58671e-07
6.58478e-07
6.62489e-07
6.6471e-07
6.63752e-07
6.58671e-07
6.58671e-07
6.58671e-07
6.58671e-07
6.58671e-07
6.58671e-07
6.57335e-07
6.62367e-07
6.6429e-07
6.63757e-07
6.58671e-07
6.58671e-07
6.58671e-07
6.58671e-07
6.58671e-07
6.58671e-07
6.57417e-07
6.60906e-07
6.63094e-07
6.58671e-07
6.58671e-07
6.58671e-07
6.58671e-07
6.58671e-07
6.58671e-07
6.57644e-07
6.6051e-07
6.6422e-07
6.61643e-07
6.58671e-07
6.58671e-07
6.58671e-07
6.58671e-07
6.55495e-07
6.59545e-07
6.62888e-07
6.6457e-07
6.61408e-07
6.58477e-07
6.57332e-07
6.57413e-07
6.57639e-07
6.59542e-07
6.60677e-07
6.62485e-07
6.62365e-07
6.60905e-07
6.60508e-07
6.62887e-07
6.5478e-07
6.54358e-07
6.55592e-07
6.53506e-07
6.53821e-07
6.53825e-07
6.53161e-07
6.54288e-07
6.54639e-07
6.55594e-07
6.5497e-07
6.4874e-07
6.4874e-07
6.4874e-07
6.4874e-07
6.51712e-07
6.51477e-07
6.53506e-07
6.48739e-07
6.4874e-07
6.4874e-07
6.4874e-07
6.4874e-07
6.4874e-07
6.48546e-07
6.52557e-07
6.54779e-07
6.53821e-07
6.48739e-07
6.4874e-07
6.4874e-07
6.4874e-07
6.4874e-07
6.4874e-07
6.47404e-07
6.52436e-07
6.54358e-07
6.53825e-07
6.4874e-07
6.4874e-07
6.4874e-07
6.4874e-07
6.4874e-07
6.4874e-07
6.47486e-07
6.50974e-07
6.53162e-07
6.4874e-07
6.4874e-07
6.4874e-07
6.4874e-07
6.4874e-07
6.4874e-07
6.47712e-07
6.50579e-07
6.54289e-07
6.51711e-07
6.4874e-07
6.4874e-07
6.4874e-07
6.4874e-07
6.45563e-07
6.49613e-07
6.52957e-07
6.54639e-07
6.51476e-07
6.48545e-07