/*--------------------------------*- C++ -*----------------------------------*\
| =========                 |                                                 |
| \\      /  F ield         | OpenFOAM: The Open Source CFD Toolbox           |
|  \\    /   O peration     | Version:  v2012                                 |
|   \\  /    A nd           | Website:  www.openfoam.com                      |
|    \\/     M anipulation  |                                                 |
\*---------------------------------------------------------------------------*/
FoamFile
{
    version     2.0;
    format      ascii;
    class       volScalarField;
    location    "0.295";
    object      p;
}
// * * * * * * * * * * * * * * * * * * * * * * * * * * * * * * * * * * * * * //

dimensions      [0 2 -2 0 0 0 0];


internalField   nonuniform List<scalar> 
189320
(
4.70095e-07
4.70665e-07
4.62842e-07
4.6239e-07
4.60058e-07
4.5936e-07
4.61474e-07
4.62723e-07
4.59959e-07
4.62822e-07
4.58889e-07
4.59503e-07
4.58536e-07
4.58314e-07
4.59024e-07
4.59247e-07
4.61268e-07
4.62373e-07
4.59486e-07
4.57999e-07
4.57364e-07
4.57237e-07
4.57671e-07
4.58661e-07
4.58904e-07
4.63404e-07
4.70003e-07
4.60015e-07
4.58527e-07
4.5736e-07
4.56868e-07
4.56781e-07
4.57066e-07
4.5787e-07
4.59482e-07
4.62881e-07
4.70592e-07
4.59347e-07
4.58308e-07
4.57236e-07
4.56783e-07
4.56699e-07
4.56952e-07
4.57666e-07
4.59364e-07
4.61213e-07
4.61465e-07
4.59025e-07
4.57675e-07
4.5707e-07
4.56954e-07
4.57324e-07
4.58238e-07
4.59352e-07
4.72285e-07
4.62724e-07
4.59253e-07
4.58672e-07
4.57883e-07
4.57674e-07
4.5824e-07
4.59331e-07
4.5878e-07
4.62985e-07
4.59971e-07
4.61285e-07
4.58934e-07
4.59511e-07
4.5938e-07
4.59359e-07
4.58781e-07
4.57895e-07
4.63422e-07
4.62908e-07
4.61253e-07
4.72305e-07
4.62999e-07
4.51126e-07
4.50905e-07
4.52724e-07
4.5144e-07
4.51491e-07
4.51267e-07
4.51329e-07
4.50583e-07
4.51184e-07
4.52718e-07
4.53015e-07
4.45773e-07
4.45489e-07
4.45491e-07
4.45755e-07
4.47264e-07
4.47851e-07
4.51413e-07
4.45767e-07
4.44256e-07
4.44775e-07
4.44766e-07
4.44257e-07
4.45787e-07
4.43772e-07
4.47194e-07
4.51112e-07
4.51484e-07
4.4549e-07
4.44764e-07
4.44979e-07
4.44975e-07
4.4477e-07
4.45481e-07
4.43332e-07
4.46752e-07
4.509e-07
4.51272e-07
4.45493e-07
4.44764e-07
4.44975e-07
4.44974e-07
4.44774e-07
4.45487e-07
4.4323e-07
4.47528e-07
4.51336e-07
4.45754e-07
4.44256e-07
4.4477e-07
4.44761e-07
4.4426e-07
4.45773e-07
4.43369e-07
4.44137e-07
4.50593e-07
4.47299e-07
4.45789e-07
4.4549e-07
4.4549e-07
4.45771e-07
4.37804e-07
4.45324e-07
4.4888e-07
4.51191e-07
4.47856e-07
4.4378e-07
4.43333e-07
4.43234e-07
4.43373e-07
4.45286e-07
4.44647e-07
4.472e-07
4.46762e-07
4.47524e-07
4.44126e-07
4.48863e-07
4.46005e-07
4.45541e-07
4.47536e-07
4.46643e-07
4.47053e-07
4.47207e-07
4.46339e-07
4.45273e-07
4.45747e-07
4.47534e-07
4.49621e-07
4.41905e-07
4.41788e-07
4.41786e-07
4.41904e-07
4.43632e-07
4.43e-07
4.46639e-07
4.41902e-07
4.40927e-07
4.40952e-07
4.40942e-07
4.40933e-07
4.41906e-07
4.37598e-07
4.41757e-07
4.46001e-07
4.47049e-07
4.41786e-07
4.40942e-07
4.40968e-07
4.40962e-07
4.40947e-07
4.41784e-07
4.35997e-07
4.41943e-07
4.45539e-07
4.47204e-07
4.41788e-07
4.4094e-07
4.40963e-07
4.40963e-07
4.40948e-07
4.41785e-07
4.36036e-07
4.42064e-07
4.46332e-07
4.41902e-07
4.40928e-07
4.40948e-07
4.40939e-07
4.40932e-07
4.41906e-07
4.36277e-07
4.38889e-07
4.45275e-07
4.43637e-07
4.41908e-07
4.41786e-07
4.41785e-07
4.41906e-07
4.32456e-07
4.39546e-07
4.42811e-07
4.45751e-07
4.43006e-07
4.37603e-07
4.36004e-07
4.3604e-07
4.36287e-07
4.39557e-07
4.38982e-07
4.41748e-07
4.41942e-07
4.42066e-07
4.38895e-07
4.42828e-07
4.41186e-07
4.40711e-07
4.42667e-07
4.4203e-07
4.4252e-07
4.42743e-07
4.41666e-07
4.4047e-07
4.40841e-07
4.42668e-07
4.45094e-07
4.37448e-07
4.37412e-07
4.37411e-07
4.37445e-07
4.38719e-07
4.38053e-07
4.42025e-07
4.37448e-07
4.37079e-07
4.37054e-07
4.37051e-07
4.37078e-07
4.37448e-07
4.32836e-07
4.36919e-07
4.41187e-07
4.42523e-07
4.37416e-07
4.37053e-07
4.37042e-07
4.37039e-07
4.37052e-07
4.3741e-07
4.30775e-07
4.37065e-07
4.40713e-07
4.42745e-07
4.37414e-07
4.3705e-07
4.37039e-07
4.37038e-07
4.37052e-07
4.37411e-07
4.30771e-07
4.372e-07
4.41667e-07
4.37448e-07
4.37077e-07
4.37052e-07
4.3705e-07
4.37077e-07
4.37445e-07
4.31128e-07
4.34007e-07
4.40468e-07
4.3872e-07
4.37449e-07
4.37415e-07
4.37413e-07
4.37447e-07
4.2723e-07
4.34552e-07
4.37923e-07
4.40839e-07
4.38051e-07
4.32842e-07
4.3078e-07
4.3077e-07
4.31119e-07
4.3455e-07
4.34028e-07
4.36926e-07
4.3706e-07
4.37204e-07
4.34006e-07
4.37925e-07
4.36606e-07
4.36129e-07
4.38075e-07
4.3749e-07
4.38048e-07
4.38278e-07
4.37094e-07
4.35882e-07
4.36233e-07
4.38067e-07
4.40619e-07
4.32951e-07
4.32943e-07
4.32943e-07
4.32952e-07
4.34117e-07
4.33442e-07
4.37486e-07
4.32951e-07
4.32817e-07
4.32811e-07
4.32809e-07
4.32817e-07
4.3295e-07
4.28214e-07
4.32325e-07
4.36607e-07
4.3805e-07
4.32942e-07
4.3281e-07
4.32806e-07
4.32804e-07
4.3281e-07
4.32942e-07
4.26089e-07
4.32466e-07
4.36131e-07
4.38276e-07
4.32942e-07
4.3281e-07
4.32804e-07
4.32803e-07
4.32811e-07
4.32942e-07
4.26111e-07
4.32614e-07
4.3709e-07
4.32951e-07
4.32816e-07
4.3281e-07
4.32808e-07
4.32816e-07
4.32951e-07
4.26543e-07
4.29398e-07
4.35883e-07
4.34119e-07
4.32951e-07
4.32943e-07
4.32943e-07
4.32951e-07
4.2256e-07
4.29966e-07
4.33308e-07
4.36233e-07
4.3344e-07
4.28217e-07
4.26093e-07
4.26106e-07
4.26538e-07
4.29964e-07
4.29416e-07
4.32325e-07
4.32462e-07
4.32613e-07
4.294e-07
4.33309e-07
4.321e-07
4.31623e-07
4.33558e-07
4.32995e-07
4.33575e-07
4.33804e-07
4.32584e-07
4.3137e-07
4.31715e-07
4.33556e-07
4.36147e-07
4.28466e-07
4.28463e-07
4.28463e-07
4.28465e-07
4.296e-07
4.28922e-07
4.32992e-07
4.28464e-07
4.28417e-07
4.28413e-07
4.28413e-07
4.28416e-07
4.28463e-07
4.23701e-07
4.27822e-07
4.32098e-07
4.33574e-07
4.28462e-07
4.28413e-07
4.28411e-07
4.28411e-07
4.28413e-07
4.28462e-07
4.21556e-07
4.27948e-07
4.31623e-07
4.33804e-07
4.28463e-07
4.28413e-07
4.28411e-07
4.28412e-07
4.28413e-07
4.28462e-07
4.21578e-07
4.28105e-07
4.32584e-07
4.28464e-07
4.28417e-07
4.28412e-07
4.28413e-07
4.28417e-07
4.28464e-07
4.22037e-07
4.24881e-07
4.31368e-07
4.29599e-07
4.28464e-07
4.28463e-07
4.28462e-07
4.28463e-07
4.18018e-07
4.25451e-07
4.28788e-07
4.31713e-07
4.28923e-07
4.237e-07
4.21552e-07
4.21573e-07
4.2203e-07
4.25447e-07
4.24887e-07
4.27812e-07
4.27947e-07
4.28102e-07
4.24881e-07
4.28792e-07
4.27612e-07
4.27136e-07
4.29068e-07
4.28516e-07
4.29106e-07
4.29332e-07
4.2809e-07
4.26881e-07
4.27224e-07
4.29067e-07
4.31671e-07
4.2398e-07
4.23986e-07
4.23985e-07
4.23981e-07
4.25109e-07
4.2443e-07
4.28514e-07
4.23984e-07
4.23966e-07
4.23966e-07
4.23966e-07
4.23966e-07
4.23985e-07
4.19208e-07
4.23327e-07
4.27612e-07
4.29108e-07
4.23986e-07
4.23965e-07
4.23965e-07
4.23965e-07
4.23965e-07
4.23983e-07
4.17058e-07
4.23458e-07
4.27136e-07
4.29329e-07
4.23984e-07
4.23965e-07
4.23964e-07
4.23965e-07
4.23965e-07
4.23983e-07
4.1709e-07
4.23617e-07
4.2809e-07
4.23983e-07
4.23967e-07
4.23965e-07
4.23966e-07
4.23967e-07
4.23983e-07
4.17553e-07
4.2039e-07
4.26879e-07
4.25108e-07
4.23982e-07
4.23983e-07
4.23983e-07
4.23982e-07
4.13522e-07
4.20968e-07
4.24297e-07
4.27222e-07
4.24428e-07
4.19209e-07
4.17058e-07
4.1709e-07
4.1755e-07
4.20961e-07
4.20392e-07
4.23318e-07
4.2346e-07
4.23617e-07
4.20387e-07
4.24302e-07
4.23134e-07
4.22658e-07
4.24589e-07
4.24038e-07
4.24632e-07
4.24853e-07
4.23607e-07
4.224e-07
4.22742e-07
4.24587e-07
4.27196e-07
4.19505e-07
4.19503e-07
4.19503e-07
4.19505e-07
4.20628e-07
4.1995e-07
4.24037e-07
4.19504e-07
4.195e-07
4.19499e-07
4.19499e-07
4.19501e-07
4.19505e-07
4.14731e-07
4.18848e-07
4.23132e-07
4.24631e-07
4.19504e-07
4.195e-07
4.19499e-07
4.19498e-07
4.195e-07
4.19504e-07
4.12579e-07
4.18982e-07
4.22657e-07
4.24854e-07
4.19504e-07
4.19499e-07
4.19499e-07
4.19498e-07
4.195e-07
4.19505e-07
4.12612e-07
4.1914e-07
4.23609e-07
4.19505e-07
4.195e-07
4.195e-07
4.19499e-07
4.195e-07
4.19505e-07
4.1308e-07
4.15909e-07
4.22398e-07
4.20627e-07
4.19504e-07
4.19504e-07
4.19504e-07
4.19505e-07
4.09039e-07
4.16486e-07
4.19814e-07
4.2274e-07
4.19946e-07
4.14729e-07
4.12575e-07
4.12607e-07
4.13071e-07
4.1648e-07
4.15911e-07
4.18838e-07
4.18978e-07
4.19139e-07
4.15906e-07
4.19819e-07
4.18656e-07
4.1818e-07
4.20111e-07
4.19561e-07
4.20156e-07
4.20379e-07
4.19131e-07
4.17923e-07
4.18265e-07
4.20109e-07
4.22722e-07
4.15028e-07
4.15029e-07
4.15029e-07
4.1503e-07
4.1615e-07
4.15471e-07
4.19561e-07
4.15031e-07
4.15026e-07
4.15025e-07
4.15026e-07
4.15026e-07
4.15027e-07
4.10253e-07
4.1437e-07
4.18655e-07
4.20157e-07
4.15029e-07
4.15025e-07
4.15025e-07
4.15025e-07
4.15026e-07
4.15028e-07
4.08099e-07
4.14504e-07
4.18181e-07
4.2038e-07
4.1503e-07
4.15027e-07
4.15027e-07
4.15026e-07
4.15026e-07
4.15028e-07
4.08134e-07
4.14662e-07
4.19132e-07
4.15027e-07
4.15024e-07
4.15023e-07
4.15024e-07
4.15025e-07
4.15029e-07
4.08603e-07
4.11433e-07
4.17922e-07
4.16149e-07
4.15031e-07
4.1503e-07
4.1503e-07
4.15031e-07
4.04563e-07
4.12009e-07
4.15338e-07
4.18263e-07
4.15469e-07
4.10253e-07
4.08097e-07
4.0813e-07
4.08594e-07
4.12003e-07
4.11433e-07
4.14362e-07
4.14502e-07
4.14662e-07
4.1143e-07
4.15344e-07
4.1418e-07
4.13704e-07
4.15635e-07
4.15087e-07
4.15683e-07
4.15904e-07
4.14654e-07
4.13445e-07
4.13788e-07
4.15633e-07
4.18247e-07
4.10553e-07
4.10553e-07
4.10553e-07
4.10552e-07
4.11673e-07
4.10994e-07
4.15086e-07
4.10553e-07
4.10551e-07
4.1055e-07
4.10552e-07
4.10551e-07
4.10552e-07
4.05776e-07
4.09893e-07
4.14179e-07
4.15682e-07
4.10553e-07
4.10553e-07
4.10552e-07
4.10553e-07
4.10551e-07
4.10553e-07
4.03622e-07
4.10027e-07
4.13705e-07
4.15904e-07
4.10553e-07
4.10551e-07
4.10551e-07
4.10552e-07
4.10549e-07
4.10553e-07
4.03658e-07
4.10185e-07
4.14655e-07
4.10554e-07
4.10552e-07
4.10552e-07
4.10552e-07
4.10551e-07
4.10554e-07
4.04127e-07
4.06955e-07
4.13446e-07
4.1167e-07
4.10553e-07
4.10553e-07
4.10553e-07
4.10553e-07
4.00087e-07
4.07532e-07
4.1086e-07
4.13786e-07
4.10991e-07
4.05775e-07
4.03617e-07
4.03653e-07
4.04118e-07
4.07526e-07
4.06956e-07
4.09885e-07
4.10026e-07
4.10185e-07
4.06952e-07
4.10866e-07
4.09705e-07
4.09228e-07
4.11161e-07
4.10614e-07
4.11208e-07
4.11428e-07
4.10177e-07
4.08972e-07
4.09313e-07
4.11158e-07
4.13769e-07
4.06077e-07
4.06077e-07
4.06077e-07
4.06076e-07
4.07197e-07
4.06519e-07
4.1061e-07
4.06077e-07
4.06078e-07
4.06077e-07
4.06077e-07
4.06078e-07
4.06077e-07
4.01302e-07
4.05419e-07
4.09704e-07
4.11207e-07
4.06077e-07
4.06077e-07
4.06077e-07
4.06077e-07
4.06077e-07
4.06077e-07
3.99148e-07
4.05553e-07
4.09229e-07
4.11429e-07
4.06077e-07
4.06077e-07
4.06077e-07
4.06077e-07
4.06077e-07
4.06077e-07
3.99184e-07
4.05712e-07
4.10179e-07
4.06077e-07
4.06078e-07
4.06077e-07
4.06077e-07
4.06078e-07
4.06077e-07
3.99652e-07
4.0248e-07
4.0897e-07
4.07194e-07
4.06077e-07
4.06078e-07
4.06077e-07
4.06077e-07
3.95613e-07
4.03058e-07
4.06385e-07
4.09311e-07
4.06516e-07
4.013e-07
3.99141e-07
3.99178e-07
3.99643e-07
4.03052e-07
4.02481e-07
4.0541e-07
4.0555e-07
4.0571e-07
4.02477e-07
4.0639e-07
4.0523e-07
4.04754e-07
4.06683e-07
4.0614e-07
4.06733e-07
4.06954e-07
4.05703e-07
4.04495e-07
4.04836e-07
4.06683e-07
4.09295e-07
4.01603e-07
4.01603e-07
4.01602e-07
4.01602e-07
4.02722e-07
4.02043e-07
4.06136e-07
4.01603e-07
4.01603e-07
4.01603e-07
4.01603e-07
4.01603e-07
4.01603e-07
3.96827e-07
4.00944e-07
4.05229e-07
4.06733e-07
4.01603e-07
4.01603e-07
4.01603e-07
4.01603e-07
4.01603e-07
4.01603e-07
3.94675e-07
4.01078e-07
4.04755e-07
4.06955e-07
4.01603e-07
4.01603e-07
4.01603e-07
4.01603e-07
4.01603e-07
4.01603e-07
3.9471e-07
4.01237e-07
4.05704e-07
4.01603e-07
4.01603e-07
4.01603e-07
4.01603e-07
4.01603e-07
4.01603e-07
3.95178e-07
3.98006e-07
4.04496e-07
4.0272e-07
4.01603e-07
4.01602e-07
4.01602e-07
4.01603e-07
3.91138e-07
3.98583e-07
4.0191e-07
4.04837e-07
4.02041e-07
3.96826e-07
3.94668e-07
3.94704e-07
3.95169e-07
3.98577e-07
3.98006e-07
4.00936e-07
4.01076e-07
4.01236e-07
3.98003e-07
4.01916e-07
4.00756e-07
4.0028e-07
4.02212e-07
4.01666e-07
4.02259e-07
4.0248e-07
4.01231e-07
4.00019e-07
4.00361e-07
4.02209e-07
4.04822e-07
3.97129e-07
3.97129e-07
3.97129e-07
3.97128e-07
3.98247e-07
3.97568e-07
4.01661e-07
3.97129e-07
3.97128e-07
3.97128e-07
3.97128e-07
3.97128e-07
3.97128e-07
3.92352e-07
3.96469e-07
4.00755e-07
4.02259e-07
3.97129e-07
3.97128e-07
3.97129e-07
3.97129e-07
3.97128e-07
3.97128e-07
3.902e-07
3.96604e-07
4.0028e-07
4.02481e-07
3.97129e-07
3.97128e-07
3.97128e-07
3.97128e-07
3.97128e-07
3.97128e-07
3.90236e-07
3.96763e-07
4.0123e-07
3.97129e-07
3.97128e-07
3.97129e-07
3.97129e-07
3.97128e-07
3.97128e-07
3.90703e-07
3.93531e-07
4.00021e-07
3.98245e-07
3.97129e-07
3.97129e-07
3.97129e-07
3.97128e-07
3.86663e-07
3.94108e-07
3.97435e-07
4.00362e-07
3.97567e-07
3.92351e-07
3.90193e-07
3.90228e-07
3.90694e-07
3.94102e-07
3.93531e-07
3.96461e-07
3.96602e-07
3.96761e-07
3.93528e-07
3.97441e-07
3.96282e-07
3.95806e-07
3.97735e-07
3.97191e-07
3.97785e-07
3.98005e-07
3.96756e-07
3.95546e-07
3.95887e-07
3.97735e-07
4.00348e-07
3.92654e-07
3.92654e-07
3.92654e-07
3.92654e-07
3.93773e-07
3.93095e-07
3.97187e-07
3.92654e-07
3.92654e-07
3.92654e-07
3.92654e-07
3.92654e-07
3.92654e-07
3.87878e-07
3.91995e-07
3.96281e-07
3.97785e-07
3.92654e-07
3.92654e-07
3.92654e-07
3.92654e-07
3.92654e-07
3.92654e-07
3.85726e-07
3.9213e-07
3.95806e-07
3.98007e-07
3.92654e-07
3.92654e-07
3.92654e-07
3.92654e-07
3.92654e-07
3.92654e-07
3.85762e-07
3.92288e-07
3.96755e-07
3.92654e-07
3.92654e-07
3.92654e-07
3.92654e-07
3.92654e-07
3.92654e-07
3.86229e-07
3.89057e-07
3.95547e-07
3.93771e-07
3.92654e-07
3.92654e-07
3.92654e-07
3.92654e-07
3.82189e-07
3.89634e-07
3.92961e-07
3.95888e-07
3.93093e-07
3.87877e-07
3.85719e-07
3.85754e-07
3.8622e-07
3.89628e-07
3.89057e-07
3.91987e-07
3.92127e-07
3.92287e-07
3.89054e-07
3.92967e-07
3.91807e-07
3.91331e-07
3.93261e-07
3.92717e-07
3.93311e-07
3.93531e-07
3.92282e-07
3.91073e-07
3.91414e-07
3.9326e-07
3.95874e-07
3.8818e-07
3.8818e-07
3.8818e-07
3.8818e-07
3.89299e-07
3.88621e-07
3.92713e-07
3.8818e-07
3.8818e-07
3.8818e-07
3.8818e-07
3.8818e-07
3.8818e-07
3.83405e-07
3.87521e-07
3.91806e-07
3.9331e-07
3.8818e-07
3.8818e-07
3.8818e-07
3.8818e-07
3.8818e-07
3.8818e-07
3.81252e-07
3.87655e-07
3.91331e-07
3.93532e-07
3.8818e-07
3.8818e-07
3.8818e-07
3.8818e-07
3.8818e-07
3.8818e-07
3.81287e-07
3.87814e-07
3.92281e-07
3.8818e-07
3.8818e-07
3.8818e-07
3.8818e-07
3.8818e-07
3.8818e-07
3.81755e-07
3.84582e-07
3.91073e-07
3.89297e-07
3.8818e-07
3.8818e-07
3.8818e-07
3.8818e-07
3.77715e-07
3.8516e-07
3.88486e-07
3.91413e-07
3.88618e-07
3.83402e-07
3.81244e-07
3.81279e-07
3.81745e-07
3.85154e-07
3.84583e-07
3.87512e-07
3.87653e-07
3.87812e-07
3.84579e-07
3.88493e-07
3.87333e-07
3.86858e-07
3.88787e-07
3.88243e-07
3.88837e-07
3.89057e-07
3.87808e-07
3.86598e-07
3.86939e-07
3.88786e-07
3.91399e-07
3.83706e-07
3.83706e-07
3.83706e-07
3.83706e-07
3.84825e-07
3.84147e-07
3.88239e-07
3.83706e-07
3.83706e-07
3.83706e-07
3.83706e-07
3.83706e-07
3.83706e-07
3.78931e-07
3.83047e-07
3.87332e-07
3.88837e-07
3.83706e-07
3.83706e-07
3.83706e-07
3.83706e-07
3.83706e-07
3.83706e-07
3.76778e-07
3.83182e-07
3.86858e-07
3.89058e-07
3.83706e-07
3.83706e-07
3.83706e-07
3.83706e-07
3.83706e-07
3.83706e-07
3.76814e-07
3.83341e-07
3.87807e-07
3.83706e-07
3.83706e-07
3.83706e-07
3.83706e-07
3.83706e-07
3.83706e-07
3.77281e-07
3.80109e-07
3.86599e-07
3.84823e-07
3.83706e-07
3.83706e-07
3.83706e-07
3.83706e-07
3.73241e-07
3.80686e-07
3.84013e-07
3.86939e-07
3.84144e-07
3.78928e-07
3.76769e-07
3.76805e-07
3.77271e-07
3.8068e-07
3.80109e-07
3.83038e-07
3.83179e-07
3.83339e-07
3.80105e-07
3.84019e-07
3.8286e-07
3.82384e-07
3.84313e-07
3.8377e-07
3.84363e-07
3.84584e-07
3.83334e-07
3.82126e-07
3.82466e-07
3.84313e-07
3.86925e-07
3.79232e-07
3.79233e-07
3.79233e-07
3.79232e-07
3.80351e-07
3.79673e-07
3.83765e-07
3.79232e-07
3.79232e-07
3.79232e-07
3.79232e-07
3.79232e-07
3.79232e-07
3.74457e-07
3.78574e-07
3.82859e-07
3.84363e-07
3.79232e-07
3.79232e-07
3.79232e-07
3.79232e-07
3.79232e-07
3.79232e-07
3.72304e-07
3.78708e-07
3.82384e-07
3.84585e-07
3.79232e-07
3.79232e-07
3.79232e-07
3.79232e-07
3.79232e-07
3.79232e-07
3.7234e-07
3.78867e-07
3.83334e-07
3.79232e-07
3.79232e-07
3.79232e-07
3.79232e-07
3.79232e-07
3.79232e-07
3.72807e-07
3.75635e-07
3.82125e-07
3.80349e-07
3.79232e-07
3.79232e-07
3.79232e-07
3.79232e-07
3.68767e-07
3.76212e-07
3.79539e-07
3.82466e-07
3.79671e-07
3.74455e-07
3.72297e-07
3.72332e-07
3.72798e-07
3.76206e-07
3.75635e-07
3.78565e-07
3.78706e-07
3.78865e-07
3.75631e-07
3.79545e-07
3.78385e-07
3.77909e-07
3.79838e-07
3.79295e-07
3.79889e-07
3.80109e-07
3.7886e-07
3.77651e-07
3.77991e-07
3.79838e-07
3.82451e-07
3.74758e-07
3.74758e-07
3.74757e-07
3.74757e-07
3.75876e-07
3.75199e-07
3.79291e-07
3.74758e-07
3.74758e-07
3.74758e-07
3.74757e-07
3.74758e-07
3.74757e-07
3.69981e-07
3.74099e-07
3.78384e-07
3.79888e-07
3.74758e-07
3.74758e-07
3.74757e-07
3.74757e-07
3.74757e-07
3.74757e-07
3.67829e-07
3.74233e-07
3.7791e-07
3.8011e-07
3.74757e-07
3.74757e-07
3.74757e-07
3.74757e-07
3.74757e-07
3.74757e-07
3.67865e-07
3.74392e-07
3.78859e-07
3.74757e-07
3.74757e-07
3.74757e-07
3.74757e-07
3.74757e-07
3.74757e-07
3.68333e-07
3.7116e-07
3.7765e-07
3.75874e-07
3.74757e-07
3.74757e-07
3.74757e-07
3.74757e-07
3.64292e-07
3.71737e-07
3.75064e-07
3.77991e-07
3.75196e-07
3.6998e-07
3.67823e-07
3.67859e-07
3.68324e-07
3.71732e-07
3.71161e-07
3.7409e-07
3.74231e-07
3.74391e-07
3.71157e-07
3.75071e-07
3.7391e-07
3.73434e-07
3.75364e-07
3.7482e-07
3.75414e-07
3.75634e-07
3.74385e-07
3.73176e-07
3.73516e-07
3.75363e-07
3.77976e-07
3.70282e-07
3.70282e-07
3.70282e-07
3.70282e-07
3.71401e-07
3.70724e-07
3.74816e-07
3.70282e-07
3.70282e-07
3.70282e-07
3.70282e-07
3.70282e-07
3.70282e-07
3.65506e-07
3.69624e-07
3.73909e-07
3.75413e-07
3.70282e-07
3.70282e-07
3.70282e-07
3.70282e-07
3.70282e-07
3.70282e-07
3.63354e-07
3.69758e-07
3.73434e-07
3.75635e-07
3.70282e-07
3.70282e-07
3.70282e-07
3.70282e-07
3.70282e-07
3.70282e-07
3.6339e-07
3.69917e-07
3.74384e-07
3.70282e-07
3.70282e-07
3.70282e-07
3.70282e-07
3.70282e-07
3.70282e-07
3.63857e-07
3.66685e-07
3.73175e-07
3.71399e-07
3.70282e-07
3.70282e-07
3.70282e-07
3.70282e-07
3.59817e-07
3.67262e-07
3.70589e-07
3.73516e-07
3.70721e-07
3.65505e-07
3.63346e-07
3.63382e-07
3.63848e-07
3.67256e-07
3.66686e-07
3.69615e-07
3.69755e-07
3.69914e-07
3.66681e-07
3.70595e-07
3.69435e-07
3.68959e-07
3.70888e-07
3.70345e-07
3.70938e-07
3.71159e-07
3.69909e-07
3.687e-07
3.69041e-07
3.70888e-07
3.735e-07
3.65807e-07
3.65807e-07
3.65807e-07
3.65807e-07
3.66926e-07
3.66248e-07
3.7034e-07
3.65807e-07
3.65807e-07
3.65807e-07
3.65807e-07
3.65807e-07
3.65807e-07
3.61031e-07
3.65148e-07
3.69434e-07
3.70938e-07
3.65807e-07
3.65807e-07
3.65807e-07
3.65807e-07
3.65807e-07
3.65807e-07
3.58879e-07
3.65283e-07
3.68959e-07
3.7116e-07
3.65807e-07
3.65807e-07
3.65807e-07
3.65807e-07
3.65807e-07
3.65807e-07
3.58915e-07
3.65442e-07
3.69908e-07
3.65807e-07
3.65807e-07
3.65807e-07
3.65807e-07
3.65807e-07
3.65807e-07
3.59382e-07
3.6221e-07
3.687e-07
3.66924e-07
3.65807e-07
3.65807e-07
3.65807e-07
3.65807e-07
3.55342e-07
3.62787e-07
3.66114e-07
3.69041e-07
3.66246e-07
3.6103e-07
3.58874e-07
3.58909e-07
3.59373e-07
3.62781e-07
3.62211e-07
3.6514e-07
3.65281e-07
3.6544e-07
3.62205e-07
3.6612e-07
3.64959e-07
3.64484e-07
3.66413e-07
3.65869e-07
3.66463e-07
3.66683e-07
3.65433e-07
3.64224e-07
3.64566e-07
3.66412e-07
3.69025e-07
3.61331e-07
3.61331e-07
3.61331e-07
3.61331e-07
3.62451e-07
3.61773e-07
3.65865e-07
3.61331e-07
3.61331e-07
3.61331e-07
3.61331e-07
3.61331e-07
3.61331e-07
3.56555e-07
3.60673e-07
3.64958e-07
3.66462e-07
3.61331e-07
3.61331e-07
3.61331e-07
3.61331e-07
3.61331e-07
3.61331e-07
3.54403e-07
3.60807e-07
3.64483e-07
3.66684e-07
3.61331e-07
3.61331e-07
3.61331e-07
3.61331e-07
3.61331e-07
3.61331e-07
3.54439e-07
3.60966e-07
3.65433e-07
3.61331e-07
3.61331e-07
3.61331e-07
3.61331e-07
3.61331e-07
3.61331e-07
3.54907e-07
3.57734e-07
3.64224e-07
3.62448e-07
3.61331e-07
3.61331e-07
3.61331e-07
3.61331e-07
3.50866e-07
3.58311e-07
3.61639e-07
3.64565e-07
3.6177e-07
3.56554e-07
3.54398e-07
3.54433e-07
3.54897e-07
3.58305e-07
3.57735e-07
3.60664e-07
3.60805e-07
3.60964e-07
3.5773e-07
3.61645e-07
3.60484e-07
3.60008e-07
3.61936e-07
3.61392e-07
3.61987e-07
3.62207e-07
3.60958e-07
3.59748e-07
3.6009e-07
3.61937e-07
3.64549e-07
3.56855e-07
3.56855e-07
3.56855e-07
3.56855e-07
3.57975e-07
3.57297e-07
3.61389e-07
3.56855e-07
3.56855e-07
3.56855e-07
3.56855e-07
3.56855e-07
3.56855e-07
3.52079e-07
3.56197e-07
3.60483e-07
3.61986e-07
3.56855e-07
3.56855e-07
3.56855e-07
3.56855e-07
3.56855e-07
3.56855e-07
3.49927e-07
3.56332e-07
3.60008e-07
3.62208e-07
3.56855e-07
3.56855e-07
3.56855e-07
3.56855e-07
3.56855e-07
3.56855e-07
3.49963e-07
3.5649e-07
3.60957e-07
3.56855e-07
3.56855e-07
3.56855e-07
3.56855e-07
3.56855e-07
3.56855e-07
3.50431e-07
3.53259e-07
3.59749e-07
3.57972e-07
3.56855e-07
3.56855e-07
3.56855e-07
3.56855e-07
3.4639e-07
3.53835e-07
3.57163e-07
3.60089e-07
3.57294e-07
3.52078e-07
3.49922e-07
3.49957e-07
3.50421e-07
3.53829e-07
3.53259e-07
3.56188e-07
3.56329e-07
3.56488e-07
3.53254e-07
3.57168e-07
3.56006e-07
3.5553e-07
3.57459e-07
3.56915e-07
3.57509e-07
3.5773e-07
3.5648e-07
3.5527e-07
3.55612e-07
3.57459e-07
3.60071e-07
3.52378e-07
3.52378e-07
3.52378e-07
3.52378e-07
3.53498e-07
3.52819e-07
3.56911e-07
3.52378e-07
3.52378e-07
3.52378e-07
3.52378e-07
3.52378e-07
3.52378e-07
3.47602e-07
3.51719e-07
3.56005e-07
3.57509e-07
3.52378e-07
3.52378e-07
3.52378e-07
3.52378e-07
3.52378e-07
3.52378e-07
3.4545e-07
3.51854e-07
3.55531e-07
3.57731e-07
3.52378e-07
3.52378e-07
3.52378e-07
3.52378e-07
3.52378e-07
3.52378e-07
3.45486e-07
3.52013e-07
3.56479e-07
3.52378e-07
3.52378e-07
3.52378e-07
3.52378e-07
3.52378e-07
3.52377e-07
3.45953e-07
3.48781e-07
3.55271e-07
3.53495e-07
3.52378e-07
3.52378e-07
3.52378e-07
3.52377e-07
3.41913e-07
3.49358e-07
3.52685e-07
3.55612e-07
3.52817e-07
3.47601e-07
3.45445e-07
3.4548e-07
3.45944e-07
3.49352e-07
3.48782e-07
3.51711e-07
3.51852e-07
3.5201e-07
3.48777e-07
3.52691e-07
3.51529e-07
3.51053e-07
3.52981e-07
3.52437e-07
3.53032e-07
3.53252e-07
3.52003e-07
3.50792e-07
3.51134e-07
3.52981e-07
3.55593e-07
3.479e-07
3.479e-07
3.479e-07
3.479e-07
3.49021e-07
3.48342e-07
3.52434e-07
3.479e-07
3.479e-07
3.479e-07
3.479e-07
3.479e-07
3.479e-07
3.43124e-07
3.47243e-07
3.51527e-07
3.53031e-07
3.479e-07
3.479e-07
3.479e-07
3.479e-07
3.479e-07
3.479e-07
3.40972e-07
3.47376e-07
3.51053e-07
3.53253e-07
3.479e-07
3.479e-07
3.479e-07
3.479e-07
3.479e-07
3.479e-07
3.41008e-07
3.47535e-07
3.52002e-07
3.479e-07
3.479e-07
3.479e-07
3.479e-07
3.479e-07
3.479e-07
3.41476e-07
3.44304e-07
3.50793e-07
3.49017e-07
3.479e-07
3.479e-07
3.479e-07
3.479e-07
3.37435e-07
3.4488e-07
3.48208e-07
3.51134e-07
3.48339e-07
3.43123e-07
3.40967e-07
3.41002e-07
3.41466e-07
3.44874e-07
3.44304e-07
3.47233e-07
3.47374e-07
3.47533e-07
3.44299e-07
3.48213e-07
3.47051e-07
3.46575e-07
3.48503e-07
3.4796e-07
3.48554e-07
3.48774e-07
3.47525e-07
3.46315e-07
3.46657e-07
3.48504e-07
3.51116e-07
3.43422e-07
3.43422e-07
3.43422e-07
3.43422e-07
3.44543e-07
3.43864e-07
3.47956e-07
3.43422e-07
3.43422e-07
3.43422e-07
3.43422e-07
3.43422e-07
3.43422e-07
3.38646e-07
3.42765e-07
3.4705e-07
3.48553e-07
3.43422e-07
3.43422e-07
3.43422e-07
3.43422e-07
3.43422e-07
3.43422e-07
3.36495e-07
3.42899e-07
3.46575e-07
3.48775e-07
3.43422e-07
3.43422e-07
3.43422e-07
3.43422e-07
3.43422e-07
3.43422e-07
3.3653e-07
3.43058e-07
3.47524e-07
3.43422e-07
3.43422e-07
3.43422e-07
3.43422e-07
3.43422e-07
3.43422e-07
3.36998e-07
3.39826e-07
3.46316e-07
3.4454e-07
3.43422e-07
3.43422e-07
3.43422e-07
3.43422e-07
3.32958e-07
3.40403e-07
3.4373e-07
3.46657e-07
3.43861e-07
3.38646e-07
3.36489e-07
3.36525e-07
3.36989e-07
3.40397e-07
3.39827e-07
3.42756e-07
3.42897e-07
3.43055e-07
3.39822e-07
3.43736e-07
3.42573e-07
3.42097e-07
3.44025e-07
3.43482e-07
3.44076e-07
3.44296e-07
3.43047e-07
3.41837e-07
3.42179e-07
3.44026e-07
3.46638e-07
3.38944e-07
3.38944e-07
3.38944e-07
3.38944e-07
3.40065e-07
3.39386e-07
3.43478e-07
3.38944e-07
3.38944e-07
3.38944e-07
3.38944e-07
3.38944e-07
3.38944e-07
3.34168e-07
3.38287e-07
3.42572e-07
3.44075e-07
3.38944e-07
3.38944e-07
3.38944e-07
3.38944e-07
3.38944e-07
3.38944e-07
3.32017e-07
3.38421e-07
3.42097e-07
3.44297e-07
3.38944e-07
3.38944e-07
3.38944e-07
3.38944e-07
3.38944e-07
3.38944e-07
3.32052e-07
3.38579e-07
3.43046e-07
3.38944e-07
3.38944e-07
3.38944e-07
3.38944e-07
3.38944e-07
3.38944e-07
3.3252e-07
3.35348e-07
3.41838e-07
3.40062e-07
3.38944e-07
3.38944e-07
3.38944e-07
3.38944e-07
3.2848e-07
3.35925e-07
3.39252e-07
3.42179e-07
3.39383e-07
3.34168e-07
3.32011e-07
3.32047e-07
3.3251e-07
3.35919e-07
3.35348e-07
3.38278e-07
3.38419e-07
3.38577e-07
3.35344e-07
3.39258e-07
3.38095e-07
3.37619e-07
3.39548e-07
3.39003e-07
3.39598e-07
3.39818e-07
3.38569e-07
3.37359e-07
3.37701e-07
3.39548e-07
3.4216e-07
3.34466e-07
3.34466e-07
3.34466e-07
3.34466e-07
3.35587e-07
3.34908e-07
3.39e-07
3.34467e-07
3.34467e-07
3.34466e-07
3.34467e-07
3.34466e-07
3.34466e-07
3.2969e-07
3.33809e-07
3.38094e-07
3.39597e-07
3.34467e-07
3.34466e-07
3.34466e-07
3.34466e-07
3.34466e-07
3.34466e-07
3.27539e-07
3.33942e-07
3.37619e-07
3.39819e-07
3.34467e-07
3.34466e-07
3.34466e-07
3.34466e-07
3.34466e-07
3.34466e-07
3.27574e-07
3.34101e-07
3.38568e-07
3.34467e-07
3.34467e-07
3.34467e-07
3.34467e-07
3.34466e-07
3.34466e-07
3.28042e-07
3.3087e-07
3.3736e-07
3.35584e-07
3.34466e-07
3.34466e-07
3.34465e-07
3.34466e-07
3.24001e-07
3.31447e-07
3.34774e-07
3.37701e-07
3.34905e-07
3.29689e-07
3.27533e-07
3.27568e-07
3.28032e-07
3.3144e-07
3.3087e-07
3.33799e-07
3.3394e-07
3.34099e-07
3.30865e-07
3.34779e-07
3.33618e-07
3.33142e-07
3.35071e-07
3.34526e-07
3.35121e-07
3.35341e-07
3.34092e-07
3.32881e-07
3.33224e-07
3.35071e-07
3.37683e-07
3.29989e-07
3.29989e-07
3.29989e-07
3.29989e-07
3.3111e-07
3.30431e-07
3.34523e-07
3.29989e-07
3.2999e-07
3.29989e-07
3.29989e-07
3.29989e-07
3.29989e-07
3.25213e-07
3.29332e-07
3.33617e-07
3.3512e-07
3.29989e-07
3.29989e-07
3.29989e-07
3.29989e-07
3.29989e-07
3.29989e-07
3.23062e-07
3.29466e-07
3.33142e-07
3.35341e-07
3.29989e-07
3.29989e-07
3.29989e-07
3.29989e-07
3.29989e-07
3.29989e-07
3.23097e-07
3.29624e-07
3.34091e-07
3.29989e-07
3.29989e-07
3.29989e-07
3.29989e-07
3.29989e-07
3.29989e-07
3.23565e-07
3.26393e-07
3.32883e-07
3.31107e-07
3.29989e-07
3.29989e-07
3.29989e-07
3.29989e-07
3.19525e-07
3.2697e-07
3.30297e-07
3.33224e-07
3.30428e-07
3.25211e-07
3.23055e-07
3.2309e-07
3.23555e-07
3.26964e-07
3.26393e-07
3.29323e-07
3.29463e-07
3.29622e-07
3.26388e-07
3.30303e-07
3.2914e-07
3.28664e-07
3.30593e-07
3.30049e-07
3.30643e-07
3.30863e-07
3.29614e-07
3.28404e-07
3.28747e-07
3.30593e-07
3.33206e-07
3.25512e-07
3.25512e-07
3.25512e-07
3.25511e-07
3.26629e-07
3.25953e-07
3.30045e-07
3.25512e-07
3.25512e-07
3.25512e-07
3.25512e-07
3.25512e-07
3.25511e-07
3.20735e-07
3.24854e-07
3.29139e-07
3.30643e-07
3.25512e-07
3.25512e-07
3.25512e-07
3.25512e-07
3.25512e-07
3.25511e-07
3.18584e-07
3.24988e-07
3.28665e-07
3.30864e-07
3.25512e-07
3.25512e-07
3.25512e-07
3.25512e-07
3.25512e-07
3.25511e-07
3.1862e-07
3.25147e-07
3.29613e-07
3.25512e-07
3.25512e-07
3.25512e-07
3.25512e-07
3.25512e-07
3.25511e-07
3.19087e-07
3.21915e-07
3.28405e-07
3.26629e-07
3.25512e-07
3.25512e-07
3.25512e-07
3.25511e-07
3.15047e-07
3.22492e-07
3.25819e-07
3.28746e-07
3.2595e-07
3.20733e-07
3.18578e-07
3.18612e-07
3.19077e-07
3.22486e-07
3.21916e-07
3.24845e-07
3.24986e-07
3.25144e-07
3.21911e-07
3.25825e-07
3.24662e-07
3.24186e-07
3.26115e-07
3.25571e-07
3.26166e-07
3.26386e-07
3.25136e-07
3.23926e-07
3.24268e-07
3.26116e-07
3.28728e-07
3.21034e-07
3.21034e-07
3.21034e-07
3.21034e-07
3.22152e-07
3.21475e-07
3.25568e-07
3.21034e-07
3.21034e-07
3.21034e-07
3.21034e-07
3.21034e-07
3.21034e-07
3.16258e-07
3.20377e-07
3.24661e-07
3.26165e-07
3.21034e-07
3.21034e-07
3.21034e-07
3.21034e-07
3.21034e-07
3.21034e-07
3.14106e-07
3.2051e-07
3.24187e-07
3.26386e-07
3.21034e-07
3.21034e-07
3.21034e-07
3.21034e-07
3.21034e-07
3.21034e-07
3.14142e-07
3.20669e-07
3.25136e-07
3.21034e-07
3.21034e-07
3.21034e-07
3.21034e-07
3.21034e-07
3.21034e-07
3.1461e-07
3.17437e-07
3.23928e-07
3.22151e-07
3.21034e-07
3.21034e-07
3.21034e-07
3.21034e-07
3.10569e-07
3.18014e-07
3.21342e-07
3.24268e-07
3.21473e-07
3.16256e-07
3.14101e-07
3.14136e-07
3.146e-07
3.18008e-07
3.17438e-07
3.20368e-07
3.20508e-07
3.20668e-07
3.17433e-07
3.21347e-07
3.20186e-07
3.1971e-07
3.21638e-07
3.21094e-07
3.21688e-07
3.21908e-07
3.20659e-07
3.19449e-07
3.19792e-07
3.21638e-07
3.2425e-07
3.16558e-07
3.16557e-07
3.16557e-07
3.16557e-07
3.17676e-07
3.16998e-07
3.21091e-07
3.16557e-07
3.16557e-07
3.16557e-07
3.16557e-07
3.16557e-07
3.16557e-07
3.11781e-07
3.159e-07
3.20184e-07
3.21688e-07
3.16557e-07
3.16557e-07
3.16557e-07
3.16557e-07
3.16557e-07
3.16557e-07
3.09629e-07
3.16033e-07
3.1971e-07
3.21909e-07
3.16557e-07
3.16557e-07
3.16557e-07
3.16557e-07
3.16557e-07
3.16557e-07
3.09665e-07
3.16192e-07
3.20659e-07
3.16557e-07
3.16557e-07
3.16557e-07
3.16557e-07
3.16557e-07
3.16557e-07
3.10133e-07
3.1296e-07
3.1945e-07
3.17674e-07
3.16557e-07
3.16557e-07
3.16557e-07
3.16557e-07
3.06092e-07
3.13537e-07
3.16864e-07
3.19791e-07
3.16996e-07
3.11779e-07
3.09624e-07
3.09659e-07
3.10123e-07
3.13531e-07
3.12961e-07
3.1589e-07
3.16031e-07
3.16191e-07
3.12956e-07
3.1687e-07
3.15709e-07
3.15233e-07
3.17161e-07
3.16617e-07
3.17211e-07
3.17432e-07
3.16183e-07
3.14972e-07
3.15315e-07
3.17162e-07
3.19774e-07
3.12081e-07
3.12081e-07
3.12081e-07
3.12081e-07
3.13199e-07
3.12522e-07
3.16614e-07
3.12081e-07
3.12081e-07
3.12081e-07
3.12081e-07
3.12081e-07
3.12081e-07
3.07305e-07
3.11423e-07
3.15708e-07
3.17211e-07
3.12081e-07
3.12081e-07
3.12081e-07
3.12081e-07
3.12081e-07
3.12081e-07
3.05153e-07
3.11557e-07
3.15233e-07
3.17432e-07
3.12081e-07
3.12081e-07
3.12081e-07
3.12081e-07
3.12081e-07
3.12081e-07
3.05189e-07
3.11716e-07
3.16182e-07
3.12081e-07
3.12081e-07
3.12081e-07
3.12081e-07
3.12081e-07
3.12081e-07
3.05656e-07
3.08484e-07
3.14974e-07
3.13198e-07
3.12081e-07
3.12081e-07
3.12081e-07
3.12081e-07
3.01616e-07
3.09061e-07
3.12388e-07
3.15315e-07
3.12519e-07