/*--------------------------------*- C++ -*----------------------------------*\
| =========                 |                                                 |
| \\      /  F ield         | OpenFOAM: The Open Source CFD Toolbox           |
|  \\    /   O peration     | Version:  v2012                                 |
|   \\  /    A nd           | Website:  www.openfoam.com                      |
|    \\/     M anipulation  |                                                 |
\*---------------------------------------------------------------------------*/
FoamFile
{
    version     2.0;
    format      ascii;
    class       volScalarField;
    location    "0.325";
    object      p;
}
// * * * * * * * * * * * * * * * * * * * * * * * * * * * * * * * * * * * * * //

dimensions      [0 2 -2 0 0 0 0];


internalField   nonuniform List<scalar> 
189320
(
6.04918e-07
6.05038e-07
5.97965e-07
5.9754e-07
5.95719e-07
5.95079e-07
5.96931e-07
5.98233e-07
5.95188e-07
5.97949e-07
5.94505e-07
5.95251e-07
5.94419e-07
5.94232e-07
5.94825e-07
5.94931e-07
5.96491e-07
5.97528e-07
5.95234e-07
5.93952e-07
5.93411e-07
5.93302e-07
5.93674e-07
5.945e-07
5.94518e-07
5.98814e-07
6.04828e-07
5.95662e-07
5.94409e-07
5.93407e-07
5.92968e-07
5.92889e-07
5.93146e-07
5.93851e-07
5.95174e-07
5.98074e-07
6.04972e-07
5.95065e-07
5.94225e-07
5.93301e-07
5.92891e-07
5.92813e-07
5.93045e-07
5.9368e-07
5.95116e-07
5.96432e-07
5.96921e-07
5.94824e-07
5.93677e-07
5.93149e-07
5.93046e-07
5.93372e-07
5.94154e-07
5.95005e-07
6.07276e-07
5.98231e-07
5.94933e-07
5.94508e-07
5.93862e-07
5.93687e-07
5.94155e-07
5.95032e-07
5.94407e-07
5.98345e-07
5.95189e-07
5.96501e-07
5.94542e-07
5.95203e-07
5.95133e-07
5.9501e-07
5.94405e-07
5.93576e-07
5.98828e-07
5.981e-07
5.96466e-07
6.0729e-07
5.98353e-07
5.86138e-07
5.85916e-07
5.87534e-07
5.85877e-07
5.85966e-07
5.85712e-07
5.85755e-07
5.85622e-07
5.86205e-07
5.87533e-07
5.872e-07
5.80365e-07
5.80198e-07
5.80201e-07
5.80351e-07
5.82215e-07
5.82826e-07
5.8586e-07
5.80359e-07
5.79263e-07
5.79793e-07
5.79785e-07
5.79265e-07
5.80379e-07
5.79323e-07
5.82682e-07
5.86128e-07
5.85967e-07
5.80198e-07
5.79782e-07
5.79995e-07
5.79991e-07
5.79789e-07
5.80193e-07
5.78906e-07
5.82253e-07
5.85912e-07
5.85717e-07
5.80201e-07
5.79782e-07
5.79992e-07
5.79991e-07
5.79793e-07
5.80199e-07
5.78864e-07
5.82582e-07
5.85759e-07
5.80348e-07
5.79263e-07
5.79788e-07
5.79779e-07
5.79268e-07
5.80366e-07
5.78942e-07
5.79853e-07
5.85614e-07
5.82234e-07
5.80378e-07
5.80198e-07
5.80199e-07
5.80363e-07
5.74538e-07
5.80671e-07
5.84082e-07
5.86203e-07
5.82826e-07
5.79327e-07
5.78904e-07
5.78865e-07
5.78942e-07
5.80651e-07
5.80439e-07
5.82687e-07
5.82258e-07
5.82579e-07
5.79844e-07
5.84099e-07
5.79745e-07
5.79298e-07
5.81091e-07
5.79816e-07
5.80177e-07
5.80264e-07
5.79478e-07
5.79066e-07
5.79522e-07
5.8109e-07
5.82293e-07
5.75005e-07
5.74917e-07
5.74915e-07
5.75006e-07
5.7716e-07
5.76616e-07
5.79814e-07
5.75003e-07
5.74234e-07
5.74291e-07
5.74282e-07
5.74242e-07
5.75009e-07
5.71916e-07
5.76074e-07
5.79742e-07
5.80175e-07
5.74914e-07
5.7428e-07
5.74321e-07
5.74316e-07
5.74289e-07
5.74917e-07
5.7057e-07
5.76184e-07
5.79295e-07
5.80262e-07
5.74915e-07
5.74279e-07
5.74317e-07
5.74317e-07
5.7429e-07
5.74918e-07
5.70653e-07
5.75857e-07
5.79472e-07
5.75002e-07
5.74236e-07
5.74288e-07
5.7428e-07
5.74242e-07
5.7501e-07
5.7082e-07
5.73431e-07
5.79064e-07
5.77159e-07
5.75009e-07
5.74917e-07
5.74916e-07
5.75008e-07
5.67433e-07
5.73669e-07
5.76939e-07
5.79516e-07
5.76609e-07
5.71918e-07
5.70574e-07
5.70651e-07
5.70822e-07
5.73674e-07
5.73497e-07
5.76111e-07
5.76186e-07
5.75855e-07
5.73424e-07
5.76842e-07
5.73502e-07
5.73043e-07
5.74817e-07
5.73755e-07
5.74182e-07
5.74334e-07
5.73357e-07
5.72848e-07
5.73226e-07
5.74818e-07
5.76357e-07
5.69092e-07
5.69062e-07
5.69061e-07
5.69091e-07
5.70876e-07
5.70314e-07
5.73751e-07
5.69092e-07
5.68802e-07
5.68787e-07
5.68784e-07
5.68802e-07
5.69093e-07
5.65717e-07
5.69777e-07
5.73504e-07
5.74185e-07
5.69066e-07
5.68785e-07
5.68778e-07
5.68776e-07
5.68785e-07
5.69062e-07
5.63927e-07
5.69865e-07
5.73044e-07
5.74336e-07
5.69064e-07
5.68783e-07
5.68776e-07
5.68775e-07
5.68785e-07
5.69063e-07
5.63948e-07
5.69552e-07
5.73358e-07
5.69093e-07
5.68801e-07
5.68785e-07
5.68783e-07
5.68802e-07
5.69091e-07
5.64234e-07
5.67108e-07
5.72848e-07
5.70876e-07
5.69094e-07
5.69065e-07
5.69064e-07
5.69093e-07
5.60823e-07
5.67246e-07
5.70568e-07
5.7322e-07
5.70311e-07
5.65721e-07
5.63931e-07
5.63947e-07
5.64226e-07
5.67243e-07
5.67175e-07
5.69782e-07
5.6986e-07
5.69555e-07
5.67107e-07
5.7057e-07
5.67467e-07
5.67006e-07
5.68776e-07
5.67761e-07
5.68242e-07
5.68402e-07
5.67334e-07
5.66812e-07
5.67168e-07
5.68768e-07
5.70417e-07
5.63132e-07
5.63125e-07
5.63126e-07
5.63133e-07
5.64828e-07
5.64255e-07
5.67758e-07
5.63132e-07
5.63025e-07
5.63025e-07
5.63023e-07
5.63026e-07
5.63132e-07
5.59642e-07
5.63733e-07
5.67468e-07
5.68244e-07
5.63125e-07
5.63024e-07
5.6302e-07
5.63019e-07
5.63024e-07
5.63125e-07
5.5779e-07
5.63809e-07
5.67007e-07
5.684e-07
5.63125e-07
5.63024e-07
5.63019e-07
5.63018e-07
5.63025e-07
5.63126e-07
5.57832e-07
5.63508e-07
5.67331e-07
5.63132e-07
5.63025e-07
5.63024e-07
5.63022e-07
5.63025e-07
5.63133e-07
5.58186e-07
5.61046e-07
5.66814e-07
5.6483e-07
5.63133e-07
5.63126e-07
5.63126e-07
5.63133e-07
5.5471e-07
5.61206e-07
5.6451e-07
5.67168e-07
5.64254e-07
5.59644e-07
5.57792e-07
5.57828e-07
5.58181e-07
5.61203e-07
5.61117e-07
5.63733e-07
5.63806e-07
5.63507e-07
5.61048e-07
5.64509e-07
5.61497e-07
5.61035e-07
5.62797e-07
5.61802e-07
5.623e-07
5.6246e-07
5.61361e-07
5.60839e-07
5.61188e-07
5.62795e-07
5.64477e-07
5.57181e-07
5.57178e-07
5.57178e-07
5.5718e-07
5.5885e-07
5.58273e-07
5.618e-07
5.57179e-07
5.57142e-07
5.5714e-07
5.5714e-07
5.57141e-07
5.57178e-07
5.53665e-07
5.57767e-07
5.61495e-07
5.62301e-07
5.57177e-07
5.5714e-07
5.57139e-07
5.5714e-07
5.5714e-07
5.57178e-07
5.51792e-07
5.57829e-07
5.61035e-07
5.6246e-07
5.57179e-07
5.5714e-07
5.57139e-07
5.5714e-07
5.57141e-07
5.57178e-07
5.51837e-07
5.57533e-07
5.61362e-07
5.57179e-07
5.57142e-07
5.5714e-07
5.5714e-07
5.57142e-07
5.57179e-07
5.52213e-07
5.55066e-07
5.60837e-07
5.58849e-07
5.5718e-07
5.57178e-07
5.57177e-07
5.57179e-07
5.4871e-07
5.55228e-07
5.5853e-07
5.61187e-07
5.58275e-07
5.53664e-07
5.51789e-07
5.51832e-07
5.52206e-07
5.55223e-07
5.55128e-07
5.57758e-07
5.57827e-07
5.57531e-07
5.55066e-07
5.58539e-07
5.55544e-07
5.55083e-07
5.56842e-07
5.55858e-07
5.56363e-07
5.56521e-07
5.55403e-07
5.54885e-07
5.55233e-07
5.56841e-07
5.58534e-07
5.51229e-07
5.51234e-07
5.51233e-07
5.51229e-07
5.52894e-07
5.52317e-07
5.55856e-07
5.51232e-07
5.51218e-07
5.51219e-07
5.51219e-07
5.51218e-07
5.51233e-07
5.47706e-07
5.51807e-07
5.55543e-07
5.56364e-07
5.51233e-07
5.51217e-07
5.51218e-07
5.51218e-07
5.51217e-07
5.51231e-07
5.45829e-07
5.51873e-07
5.55083e-07
5.56519e-07
5.51232e-07
5.51217e-07
5.51217e-07
5.51218e-07
5.51217e-07
5.51231e-07
5.45882e-07
5.5158e-07
5.55404e-07
5.51231e-07
5.51219e-07
5.51218e-07
5.51219e-07
5.51219e-07
5.51231e-07
5.46263e-07
5.4911e-07
5.54883e-07
5.52893e-07
5.5123e-07
5.51232e-07
5.51231e-07
5.5123e-07
5.42752e-07
5.49278e-07
5.52574e-07
5.55231e-07
5.52315e-07
5.47708e-07
5.45829e-07
5.45882e-07
5.4626e-07
5.49272e-07
5.49169e-07
5.51799e-07
5.51875e-07
5.5158e-07
5.49108e-07
5.52584e-07
5.49598e-07
5.49137e-07
5.50895e-07
5.49913e-07
5.5042e-07
5.50574e-07
5.49454e-07
5.48937e-07
5.49285e-07
5.50894e-07
5.5259e-07
5.45285e-07
5.45284e-07
5.45284e-07
5.45286e-07
5.46946e-07
5.4637e-07
5.49911e-07
5.45284e-07
5.45281e-07
5.45281e-07
5.4528e-07
5.45282e-07
5.45285e-07
5.41763e-07
5.45862e-07
5.49597e-07
5.50421e-07
5.45284e-07
5.45281e-07
5.45281e-07
5.4528e-07
5.45281e-07
5.45285e-07
5.39882e-07
5.45929e-07
5.49136e-07
5.50575e-07
5.45284e-07
5.45281e-07
5.45281e-07
5.4528e-07
5.45281e-07
5.45285e-07
5.39936e-07
5.45635e-07
5.49455e-07
5.45285e-07
5.45281e-07
5.45281e-07
5.45281e-07
5.45281e-07
5.45285e-07
5.4032e-07
5.43162e-07
5.48936e-07
5.46945e-07
5.45285e-07
5.45284e-07
5.45284e-07
5.45286e-07
5.36803e-07
5.43329e-07
5.46625e-07
5.49283e-07
5.46367e-07
5.4176e-07
5.39878e-07
5.39932e-07
5.40313e-07
5.43324e-07
5.43222e-07
5.45853e-07
5.45925e-07
5.45634e-07
5.4316e-07
5.46637e-07
5.43652e-07
5.4319e-07
5.44948e-07
5.43966e-07
5.44475e-07
5.4463e-07
5.43508e-07
5.4299e-07
5.43338e-07
5.44947e-07
5.46647e-07
5.39339e-07
5.39339e-07
5.39339e-07
5.3934e-07
5.40998e-07
5.40422e-07
5.43966e-07
5.39341e-07
5.39337e-07
5.39337e-07
5.39337e-07
5.39337e-07
5.39338e-07
5.35815e-07
5.39914e-07
5.43651e-07
5.44476e-07
5.39339e-07
5.39336e-07
5.39337e-07
5.39337e-07
5.39338e-07
5.39338e-07
5.33933e-07
5.39982e-07
5.4319e-07
5.44631e-07
5.3934e-07
5.39338e-07
5.39339e-07
5.39338e-07
5.39338e-07
5.39339e-07
5.33989e-07
5.39688e-07
5.43509e-07
5.39338e-07
5.39335e-07
5.39335e-07
5.39336e-07
5.39336e-07
5.3934e-07
5.34375e-07
5.37217e-07
5.4299e-07
5.40997e-07
5.39341e-07
5.3934e-07
5.3934e-07
5.39341e-07
5.30858e-07
5.37383e-07
5.40679e-07
5.43336e-07
5.4042e-07
5.35814e-07
5.33931e-07
5.33985e-07
5.34367e-07
5.37378e-07
5.37275e-07
5.39908e-07
5.3998e-07
5.39688e-07
5.37215e-07
5.40691e-07
5.37706e-07
5.37244e-07
5.39002e-07
5.38022e-07
5.38532e-07
5.38686e-07
5.37561e-07
5.37044e-07
5.37392e-07
5.39001e-07
5.40701e-07
5.33394e-07
5.33394e-07
5.33394e-07
5.33393e-07
5.35052e-07
5.34476e-07
5.38021e-07
5.33394e-07
5.33392e-07
5.33392e-07
5.33393e-07
5.33392e-07
5.33393e-07
5.29869e-07
5.33968e-07
5.37705e-07
5.38532e-07
5.33394e-07
5.33394e-07
5.33393e-07
5.33394e-07
5.33393e-07
5.33394e-07
5.27987e-07
5.34036e-07
5.37245e-07
5.38686e-07
5.33394e-07
5.33392e-07
5.33392e-07
5.33393e-07
5.33391e-07
5.33394e-07
5.28044e-07
5.33742e-07
5.37563e-07
5.33395e-07
5.33393e-07
5.33393e-07
5.33394e-07
5.33392e-07
5.33395e-07
5.28429e-07
5.3127e-07
5.37044e-07
5.35049e-07
5.33394e-07
5.33394e-07
5.33394e-07
5.33393e-07
5.24913e-07
5.31437e-07
5.34732e-07
5.3739e-07
5.34474e-07
5.29867e-07
5.27982e-07
5.28039e-07
5.28421e-07
5.31432e-07
5.31328e-07
5.33962e-07
5.34034e-07
5.33742e-07
5.31268e-07
5.34744e-07
5.3176e-07
5.31299e-07
5.3306e-07
5.32079e-07
5.32587e-07
5.3274e-07
5.31615e-07
5.311e-07
5.31446e-07
5.33056e-07
5.34755e-07
5.27448e-07
5.27448e-07
5.27447e-07
5.27447e-07
5.29106e-07
5.2853e-07
5.32075e-07
5.27447e-07
5.27448e-07
5.27448e-07
5.27448e-07
5.27448e-07
5.27448e-07
5.23924e-07
5.28023e-07
5.31759e-07
5.32586e-07
5.27448e-07
5.27448e-07
5.27448e-07
5.27448e-07
5.27448e-07
5.27448e-07
5.22043e-07
5.28091e-07
5.31299e-07
5.3274e-07
5.27448e-07
5.27448e-07
5.27448e-07
5.27448e-07
5.27448e-07
5.27448e-07
5.221e-07
5.27798e-07
5.31616e-07
5.27448e-07
5.27448e-07
5.27448e-07
5.27448e-07
5.27448e-07
5.27448e-07
5.22484e-07
5.25325e-07
5.31098e-07
5.29104e-07
5.27448e-07
5.27448e-07
5.27448e-07
5.27448e-07
5.18968e-07
5.25492e-07
5.28787e-07
5.31445e-07
5.28528e-07
5.23922e-07
5.22037e-07
5.22094e-07
5.22477e-07
5.25487e-07
5.25383e-07
5.28016e-07
5.28088e-07
5.27797e-07
5.25323e-07
5.28799e-07
5.25815e-07
5.25354e-07
5.27111e-07
5.26134e-07
5.26641e-07
5.26795e-07
5.25671e-07
5.25153e-07
5.25499e-07
5.27111e-07
5.2881e-07
5.21503e-07
5.21503e-07
5.21503e-07
5.21502e-07
5.23161e-07
5.22584e-07
5.2613e-07
5.21503e-07
5.21503e-07
5.21503e-07
5.21503e-07
5.21503e-07
5.21503e-07
5.17979e-07
5.22078e-07
5.25815e-07
5.26642e-07
5.21503e-07
5.21503e-07
5.21503e-07
5.21503e-07
5.21503e-07
5.21503e-07
5.16098e-07
5.22146e-07
5.25354e-07
5.26796e-07
5.21503e-07
5.21503e-07
5.21503e-07
5.21503e-07
5.21503e-07
5.21503e-07
5.16155e-07
5.21853e-07
5.25671e-07
5.21503e-07
5.21503e-07
5.21503e-07
5.21503e-07
5.21503e-07
5.21503e-07
5.16539e-07
5.1938e-07
5.25153e-07
5.23158e-07
5.21503e-07
5.21502e-07
5.21502e-07
5.21503e-07
5.13022e-07
5.19547e-07
5.22841e-07
5.255e-07
5.22583e-07
5.17977e-07
5.16092e-07
5.16149e-07
5.16531e-07
5.19542e-07
5.19438e-07
5.22071e-07
5.22144e-07
5.21852e-07
5.19378e-07
5.22854e-07
5.1987e-07
5.19409e-07
5.2117e-07
5.20189e-07
5.20697e-07
5.2085e-07
5.19727e-07
5.19206e-07
5.19554e-07
5.21166e-07
5.22866e-07
5.15558e-07
5.15558e-07
5.15558e-07
5.15558e-07
5.17215e-07
5.16639e-07
5.20185e-07
5.15558e-07
5.15558e-07
5.15558e-07
5.15558e-07
5.15558e-07
5.15558e-07
5.12034e-07
5.16133e-07
5.19869e-07
5.20697e-07
5.15558e-07
5.15558e-07
5.15558e-07
5.15558e-07
5.15558e-07
5.15558e-07
5.10153e-07
5.16201e-07
5.19409e-07
5.20851e-07
5.15558e-07
5.15558e-07
5.15557e-07
5.15557e-07
5.15558e-07
5.15558e-07
5.1021e-07
5.15908e-07
5.19726e-07
5.15558e-07
5.15558e-07
5.15558e-07
5.15558e-07
5.15558e-07
5.15558e-07
5.10594e-07
5.13434e-07
5.19208e-07
5.17213e-07
5.15558e-07
5.15558e-07
5.15558e-07
5.15558e-07
5.07077e-07
5.13602e-07
5.16896e-07
5.19555e-07
5.16638e-07
5.12032e-07
5.10147e-07
5.10203e-07
5.10586e-07
5.13597e-07
5.13493e-07
5.16126e-07
5.16198e-07
5.15906e-07
5.13432e-07
5.16909e-07
5.13925e-07
5.13464e-07
5.15222e-07
5.14244e-07
5.14752e-07
5.14905e-07
5.13782e-07
5.13262e-07
5.13609e-07
5.15221e-07
5.16921e-07
5.09613e-07
5.09613e-07
5.09613e-07
5.09613e-07
5.1127e-07
5.10694e-07
5.1424e-07
5.09613e-07
5.09613e-07
5.09613e-07
5.09613e-07
5.09613e-07
5.09613e-07
5.06089e-07
5.10188e-07
5.13924e-07
5.14752e-07
5.09613e-07
5.09613e-07
5.09613e-07
5.09613e-07
5.09613e-07
5.09613e-07
5.04208e-07
5.10256e-07
5.13464e-07
5.14906e-07
5.09613e-07
5.09613e-07
5.09613e-07
5.09613e-07
5.09613e-07
5.09613e-07
5.04265e-07
5.09963e-07
5.13781e-07
5.09613e-07
5.09613e-07
5.09613e-07
5.09613e-07
5.09613e-07
5.09613e-07
5.04649e-07
5.07489e-07
5.13263e-07
5.11268e-07
5.09613e-07
5.09613e-07
5.09613e-07
5.09613e-07
5.01132e-07
5.07656e-07
5.10951e-07
5.13609e-07
5.10692e-07
5.06087e-07
5.04202e-07
5.04258e-07
5.04641e-07
5.07652e-07
5.07548e-07
5.10181e-07
5.10254e-07
5.09961e-07
5.07487e-07
5.10964e-07
5.0798e-07
5.07519e-07
5.09277e-07
5.08298e-07
5.08806e-07
5.0896e-07
5.07837e-07
5.07317e-07
5.07666e-07
5.09276e-07
5.10976e-07
5.03667e-07
5.03667e-07
5.03668e-07
5.03668e-07
5.05325e-07
5.04749e-07
5.08295e-07
5.03668e-07
5.03668e-07
5.03667e-07
5.03667e-07
5.03668e-07
5.03668e-07
5.00144e-07
5.04243e-07
5.07979e-07
5.08807e-07
5.03667e-07
5.03667e-07
5.03667e-07
5.03668e-07
5.03668e-07
5.03667e-07
4.98263e-07
5.04311e-07
5.07519e-07
5.08961e-07
5.03667e-07
5.03667e-07
5.03667e-07
5.03667e-07
5.03668e-07
5.03668e-07
4.9832e-07
5.04018e-07
5.07836e-07
5.03667e-07
5.03668e-07
5.03667e-07
5.03667e-07
5.03668e-07
5.03667e-07
4.98704e-07
5.01544e-07
5.07318e-07
5.05323e-07
5.03667e-07
5.03667e-07
5.03667e-07
5.03667e-07
4.95187e-07
5.01711e-07
5.05006e-07
5.07664e-07
5.04747e-07
5.00142e-07
4.98256e-07
4.98312e-07
4.98696e-07
5.01706e-07
5.01602e-07
5.04236e-07
5.04308e-07
5.04016e-07
5.01542e-07
5.05018e-07
5.02034e-07
5.01573e-07
5.03331e-07
5.02353e-07
5.02861e-07
5.03015e-07
5.01892e-07
5.01371e-07
5.01719e-07
5.0333e-07
5.05029e-07
4.97722e-07
4.97722e-07
4.97722e-07
4.97722e-07
4.9938e-07
4.98804e-07
5.0235e-07
4.97722e-07
4.97722e-07
4.97722e-07
4.97722e-07
4.97722e-07
4.97722e-07
4.94199e-07
4.98298e-07
5.02034e-07
5.02861e-07
4.97722e-07
4.97722e-07
4.97722e-07
4.97722e-07
4.97722e-07
4.97722e-07
4.92318e-07
4.98366e-07
5.01574e-07
5.03015e-07
4.97722e-07
4.97722e-07
4.97722e-07
4.97722e-07
4.97722e-07
4.97722e-07
4.92374e-07
4.98073e-07
5.0189e-07
4.97722e-07
4.97722e-07
4.97722e-07
4.97722e-07
4.97722e-07
4.97722e-07
4.92759e-07
4.95599e-07
5.01373e-07
4.99378e-07
4.97722e-07
4.97722e-07
4.97722e-07
4.97722e-07
4.89242e-07
4.95766e-07
4.99061e-07
5.01719e-07
4.98802e-07
4.94196e-07
4.9231e-07
4.92367e-07
4.9275e-07
4.95761e-07
4.95657e-07
4.9829e-07
4.98363e-07
4.98071e-07
4.95597e-07
4.99073e-07
4.96089e-07
4.95628e-07
4.97386e-07
4.96408e-07
4.96916e-07
4.97069e-07
4.95946e-07
4.95428e-07
4.95774e-07
4.97385e-07
4.99084e-07
4.91777e-07
4.91778e-07
4.91778e-07
4.91777e-07
4.93435e-07
4.92859e-07
4.96405e-07
4.91777e-07
4.91777e-07
4.91777e-07
4.91777e-07
4.91777e-07
4.91777e-07
4.88253e-07
4.92352e-07
4.96089e-07
4.96916e-07
4.91777e-07
4.91777e-07
4.91777e-07
4.91777e-07
4.91777e-07
4.91777e-07
4.86373e-07
4.9242e-07
4.95628e-07
4.9707e-07
4.91777e-07
4.91777e-07
4.91777e-07
4.91777e-07
4.91777e-07
4.91777e-07
4.86429e-07
4.92128e-07
4.95945e-07
4.91777e-07
4.91777e-07
4.91777e-07
4.91777e-07
4.91777e-07
4.91777e-07
4.86813e-07
4.89654e-07
4.95427e-07
4.93433e-07
4.91777e-07
4.91777e-07
4.91777e-07
4.91777e-07
4.83296e-07
4.89821e-07
4.93116e-07
4.95774e-07
4.92857e-07
4.88251e-07
4.86366e-07
4.86422e-07
4.86806e-07
4.89816e-07
4.89712e-07
4.92345e-07
4.92418e-07
4.92126e-07
4.89651e-07
4.93128e-07
4.90144e-07
4.89683e-07
4.91441e-07
4.90463e-07
4.90971e-07
4.91124e-07
4.90001e-07
4.89483e-07
4.89829e-07
4.9144e-07
4.93139e-07
4.85832e-07
4.85832e-07
4.85832e-07
4.85832e-07
4.87489e-07
4.86914e-07
4.90459e-07
4.85832e-07
4.85832e-07
4.85832e-07
4.85832e-07
4.85832e-07
4.85832e-07
4.82307e-07
4.86407e-07
4.90143e-07
4.90971e-07
4.85832e-07
4.85832e-07
4.85832e-07
4.85832e-07
4.85832e-07
4.85832e-07
4.80427e-07
4.86475e-07
4.89683e-07
4.91125e-07
4.85832e-07
4.85832e-07
4.85832e-07
4.85832e-07
4.85832e-07
4.85832e-07
4.80484e-07
4.86182e-07
4.9e-07
4.85832e-07
4.85832e-07
4.85832e-07
4.85832e-07
4.85832e-07
4.85832e-07
4.80868e-07
4.83709e-07
4.89482e-07
4.87487e-07
4.85832e-07
4.85832e-07
4.85832e-07
4.85832e-07
4.77351e-07
4.83876e-07
4.8717e-07
4.89829e-07
4.86912e-07
4.82306e-07
4.80422e-07
4.80479e-07
4.80861e-07
4.83871e-07
4.83767e-07
4.864e-07
4.86473e-07
4.86181e-07
4.83706e-07
4.87183e-07
4.84199e-07
4.83738e-07
4.85495e-07
4.84517e-07
4.85025e-07
4.85179e-07
4.84056e-07
4.83538e-07
4.83882e-07
4.85495e-07
4.87194e-07
4.79886e-07
4.79886e-07
4.79886e-07
4.79886e-07
4.81544e-07
4.80968e-07
4.84514e-07
4.79886e-07
4.79886e-07
4.79886e-07
4.79886e-07
4.79886e-07
4.79886e-07
4.76362e-07
4.80462e-07
4.84198e-07
4.85025e-07
4.79886e-07
4.79886e-07
4.79886e-07
4.79886e-07
4.79886e-07
4.79886e-07
4.74482e-07
4.8053e-07
4.83738e-07
4.8518e-07
4.79886e-07
4.79886e-07
4.79886e-07
4.79886e-07
4.79886e-07
4.79886e-07
4.74538e-07
4.80237e-07
4.84055e-07
4.79886e-07
4.79886e-07
4.79886e-07
4.79886e-07
4.79887e-07
4.79886e-07
4.74923e-07
4.77763e-07
4.83537e-07
4.81542e-07
4.79886e-07
4.79886e-07
4.79886e-07
4.79886e-07
4.71406e-07
4.7793e-07
4.81225e-07
4.83883e-07
4.80966e-07
4.7636e-07
4.74475e-07
4.74531e-07
4.74915e-07
4.77925e-07
4.77821e-07
4.80454e-07
4.80527e-07
4.80233e-07
4.7776e-07
4.81237e-07
4.78253e-07
4.77793e-07
4.7955e-07
4.78572e-07
4.7908e-07
4.79234e-07
4.78111e-07
4.77593e-07
4.77937e-07
4.79549e-07
4.81249e-07
4.73941e-07
4.73941e-07
4.73941e-07
4.73941e-07
4.75599e-07
4.75023e-07
4.78569e-07
4.73941e-07
4.73941e-07
4.73941e-07
4.73941e-07
4.73941e-07
4.73941e-07
4.70416e-07
4.74516e-07
4.78253e-07
4.7908e-07
4.73941e-07
4.73941e-07
4.73941e-07
4.73941e-07
4.73941e-07
4.73941e-07
4.68537e-07
4.74584e-07
4.77793e-07
4.79234e-07
4.73941e-07
4.73941e-07
4.73941e-07
4.73941e-07
4.73941e-07
4.73941e-07
4.68593e-07
4.74292e-07
4.78109e-07
4.73941e-07
4.73941e-07
4.73941e-07
4.73941e-07
4.73941e-07
4.73941e-07
4.68978e-07
4.71818e-07
4.77592e-07
4.75597e-07
4.73941e-07
4.73941e-07
4.73941e-07
4.73941e-07
4.65461e-07
4.71985e-07
4.7528e-07
4.77938e-07
4.75021e-07
4.70416e-07
4.68532e-07
4.68589e-07
4.6897e-07
4.7198e-07
4.71876e-07
4.74509e-07
4.74582e-07
4.74289e-07
4.71814e-07
4.75292e-07
4.72308e-07
4.71847e-07
4.73605e-07
4.72627e-07
4.73135e-07
4.73289e-07
4.72165e-07
4.71647e-07
4.71993e-07
4.73604e-07
4.75304e-07
4.67996e-07
4.67996e-07
4.67996e-07
4.67996e-07
4.69654e-07
4.69078e-07
4.72624e-07
4.67996e-07
4.67996e-07
4.67996e-07
4.67996e-07
4.67996e-07
4.67996e-07
4.64471e-07
4.68571e-07
4.72308e-07
4.73135e-07
4.67996e-07
4.67996e-07
4.67996e-07
4.67996e-07
4.67996e-07
4.67996e-07
4.62592e-07
4.68639e-07
4.71847e-07
4.73289e-07
4.67996e-07
4.67996e-07
4.67996e-07
4.67996e-07
4.67996e-07
4.67996e-07
4.62648e-07
4.68347e-07
4.72164e-07
4.67996e-07
4.67996e-07
4.67996e-07
4.67996e-07
4.67996e-07
4.67996e-07
4.63033e-07
4.65873e-07
4.71647e-07
4.69652e-07
4.67996e-07
4.67996e-07
4.67996e-07
4.67996e-07
4.59515e-07
4.6604e-07
4.69335e-07
4.71993e-07
4.69076e-07
4.64471e-07
4.62587e-07
4.62643e-07
4.63025e-07
4.66035e-07
4.65931e-07
4.68565e-07
4.68637e-07
4.68345e-07
4.6587e-07
4.69347e-07
4.66363e-07
4.65902e-07
4.67659e-07
4.66681e-07
4.6719e-07
4.67343e-07
4.6622e-07
4.65701e-07
4.66047e-07
4.67659e-07
4.69358e-07
4.62051e-07
4.62051e-07
4.62051e-07
4.62051e-07
4.63709e-07
4.63133e-07
4.66678e-07
4.62051e-07
4.62051e-07
4.62051e-07
4.62051e-07
4.62051e-07
4.62051e-07
4.58526e-07
4.62626e-07
4.66363e-07
4.6719e-07
4.62051e-07
4.62051e-07
4.62051e-07
4.62051e-07
4.62051e-07
4.62051e-07
4.56646e-07
4.62694e-07
4.65902e-07
4.67344e-07
4.62051e-07
4.62051e-07
4.62051e-07
4.62051e-07
4.62051e-07
4.62051e-07
4.56703e-07
4.62401e-07
4.66219e-07
4.62051e-07
4.62051e-07
4.62051e-07
4.62051e-07
4.62051e-07
4.62051e-07
4.57087e-07
4.59928e-07
4.65701e-07
4.63706e-07
4.62051e-07
4.62051e-07
4.62051e-07
4.62051e-07
4.5357e-07
4.60095e-07
4.63389e-07
4.66048e-07
4.63131e-07
4.58525e-07
4.56642e-07
4.56698e-07
4.57079e-07
4.6009e-07
4.59986e-07
4.62619e-07
4.62692e-07
4.62399e-07
4.59924e-07
4.63401e-07
4.60418e-07
4.59957e-07
4.61714e-07
4.60736e-07
4.61245e-07
4.61398e-07
4.60275e-07
4.59756e-07
4.60102e-07
4.61714e-07
4.63413e-07
4.56106e-07
4.56106e-07
4.56106e-07
4.56106e-07
4.57764e-07
4.57187e-07
4.60733e-07
4.56106e-07
4.56106e-07
4.56106e-07
4.56106e-07
4.56106e-07
4.56106e-07
4.52581e-07
4.56681e-07
4.60417e-07
4.61245e-07
4.56106e-07
4.56106e-07
4.56106e-07
4.56106e-07
4.56106e-07
4.56106e-07
4.50701e-07
4.56749e-07
4.59957e-07
4.61399e-07
4.56106e-07
4.56106e-07
4.56106e-07
4.56106e-07
4.56106e-07
4.56106e-07
4.50758e-07
4.56456e-07
4.60274e-07
4.56106e-07
4.56106e-07
4.56106e-07
4.56106e-07
4.56106e-07
4.56106e-07
4.51142e-07
4.53982e-07
4.59756e-07
4.57761e-07
4.56106e-07
4.56106e-07
4.56106e-07
4.56106e-07
4.47625e-07
4.54149e-07
4.57444e-07
4.60102e-07
4.57185e-07
4.5258e-07
4.50696e-07
4.50753e-07
4.51134e-07
4.54144e-07
4.54041e-07
4.56674e-07
4.56747e-07
4.56454e-07
4.53979e-07
4.57455e-07
4.54473e-07
4.54012e-07
4.55769e-07
4.54791e-07
4.55299e-07
4.55453e-07
4.5433e-07
4.5381e-07
4.54156e-07
4.55768e-07
4.57468e-07
4.5016e-07
4.5016e-07
4.5016e-07
4.5016e-07
4.51819e-07
4.51242e-07
4.54788e-07
4.5016e-07
4.5016e-07
4.5016e-07
4.5016e-07
4.5016e-07
4.5016e-07
4.46636e-07
4.50737e-07
4.54472e-07
4.55299e-07
4.5016e-07
4.5016e-07
4.5016e-07
4.5016e-07
4.5016e-07
4.5016e-07
4.44756e-07
4.50804e-07
4.54012e-07
4.55454e-07
4.5016e-07
4.5016e-07
4.5016e-07
4.5016e-07
4.5016e-07
4.5016e-07
4.44813e-07
4.50511e-07
4.54329e-07
4.5016e-07
4.5016e-07
4.5016e-07
4.5016e-07
4.5016e-07
4.5016e-07
4.45197e-07
4.48037e-07
4.53811e-07
4.51816e-07
4.5016e-07
4.5016e-07
4.5016e-07
4.5016e-07
4.4168e-07
4.48204e-07
4.51499e-07
4.54157e-07
4.5124e-07
4.46635e-07
4.44751e-07
4.44807e-07
4.45189e-07
4.48199e-07
4.48095e-07
4.50729e-07
4.50801e-07
4.50508e-07
4.48034e-07
4.5151e-07
4.48527e-07
4.48066e-07
4.49823e-07
4.48846e-07
4.49354e-07
4.49507e-07
4.48384e-07
4.47866e-07
4.48211e-07
4.49823e-07
4.51522e-07
4.44215e-07
4.44215e-07
4.44215e-07
4.44215e-07
4.45874e-07
4.45297e-07
4.48842e-07
4.44215e-07
4.44215e-07
4.44215e-07
4.44215e-07
4.44215e-07
4.44215e-07
4.4069e-07
4.44791e-07
4.48527e-07
4.49354e-07
4.44215e-07
4.44215e-07
4.44215e-07
4.44215e-07
4.44215e-07
4.44215e-07
4.38811e-07
4.44858e-07
4.48066e-07
4.49508e-07
4.44215e-07
4.44215e-07
4.44215e-07
4.44215e-07
4.44215e-07
4.44215e-07
4.38867e-07
4.44566e-07
4.48383e-07
4.44215e-07
4.44215e-07
4.44215e-07
4.44215e-07
4.44215e-07
4.44215e-07
4.39252e-07
4.42092e-07
4.47865e-07
4.45871e-07
4.44215e-07
4.44215e-07
4.44215e-07
4.44215e-07
4.35735e-07
4.42259e-07
4.45554e-07
4.48212e-07
4.45295e-07
4.4069e-07
4.38806e-07
4.38862e-07
4.39244e-07
4.42254e-07
4.4215e-07
4.44783e-07
4.44856e-07
4.44563e-07
4.42088e-07
4.45565e-07
4.42582e-07
4.42121e-07
4.43878e-07
4.42901e-07
4.43409e-07
4.43562e-07
4.42439e-07
4.4192e-07
4.42266e-07
4.43878e-07
4.45577e-07
4.3827e-07
4.3827e-07
4.3827e-07
4.3827e-07
4.39929e-07
4.39352e-07
4.42897e-07
4.3827e-07
4.3827e-07
4.3827e-07
4.3827e-07
4.3827e-07
4.3827e-07
4.34745e-07
4.38846e-07
4.42581e-07
4.43409e-07
4.3827e-07
4.3827e-07
4.3827e-07
4.3827e-07
4.3827e-07
4.3827e-07
4.32865e-07
4.38913e-07
4.42121e-07
4.43563e-07
4.3827e-07
4.3827e-07
4.3827e-07
4.3827e-07
4.3827e-07
4.3827e-07
4.32922e-07
4.3862e-07
4.42438e-07
4.3827e-07
4.3827e-07
4.3827e-07
4.3827e-07
4.3827e-07
4.3827e-07
4.33306e-07
4.36147e-07
4.4192e-07
4.39926e-07
4.3827e-07
4.3827e-07
4.3827e-07
4.3827e-07
4.29789e-07
4.36314e-07
4.39608e-07
4.42267e-07
4.3935e-07
4.34744e-07
4.32861e-07
4.32917e-07
4.33298e-07
4.36309e-07
4.36205e-07
4.38838e-07
4.38911e-07
4.38618e-07
4.36143e-07
4.3962e-07
4.36637e-07
4.36176e-07
4.37935e-07
4.36955e-07
4.37464e-07
4.37617e-07
4.36493e-07
4.35974e-07
4.36322e-07
4.37933e-07
4.39632e-07
4.32325e-07
4.32325e-07
4.32325e-07
4.32325e-07
4.33984e-07
4.33407e-07
4.36952e-07
4.32325e-07
4.32325e-07
4.32325e-07
4.32325e-07
4.32325e-07
4.32325e-07
4.288e-07
4.32901e-07
4.36636e-07
4.37464e-07
4.32325e-07
4.32325e-07
4.32325e-07
4.32325e-07
4.32325e-07
4.32325e-07
4.2692e-07
4.32968e-07
4.36176e-07
4.37618e-07
4.32325e-07
4.32325e-07
4.32325e-07
4.32325e-07
4.32325e-07
4.32325e-07
4.26977e-07
4.32675e-07
4.36493e-07
4.32325e-07
4.32325e-07
4.32325e-07
4.32325e-07
4.32325e-07
4.32325e-07
4.27361e-07
4.30202e-07
4.35975e-07
4.3398e-07
4.32324e-07
4.32325e-07
4.32324e-07
4.32325e-07
4.23844e-07
4.30369e-07
4.33663e-07
4.36322e-07
4.33405e-07
4.28799e-07
4.26916e-07
4.26972e-07
4.27353e-07
4.30364e-07
4.3026e-07
4.32893e-07
4.32966e-07
4.32673e-07
4.30198e-07
4.33675e-07
4.30692e-07
4.30231e-07
4.3199e-07
4.3101e-07
4.31519e-07
4.31672e-07
4.30548e-07
4.30029e-07
4.30377e-07
4.31988e-07
4.33687e-07
4.2638e-07
4.2638e-07
4.2638e-07
4.2638e-07
4.28038e-07
4.27461e-07
4.31007e-07
4.2638e-07
4.2638e-07
4.2638e-07
4.2638e-07
4.2638e-07
4.2638e-07
4.22855e-07
4.26956e-07
4.30691e-07
4.31519e-07
4.2638e-07
4.2638e-07
4.2638e-07
4.2638e-07
4.2638e-07
4.2638e-07
4.20975e-07
4.27023e-07
4.30231e-07
4.31672e-07
4.2638e-07
4.2638e-07
4.2638e-07
4.2638e-07
4.2638e-07
4.2638e-07
4.21032e-07
4.2673e-07
4.30548e-07
4.2638e-07
4.2638e-07
4.2638e-07
4.2638e-07
4.2638e-07
4.2638e-07
4.21416e-07
4.24256e-07
4.3003e-07
4.28035e-07
4.2638e-07
4.2638e-07
4.2638e-07
4.2638e-07
4.17899e-07
4.24423e-07
4.27718e-07
4.30376e-07
4.27459e-07
4.22853e-07
4.2097e-07
4.21025e-07
4.21408e-07
4.24418e-07
4.24315e-07
4.26948e-07
4.27021e-07
4.26727e-07
4.24253e-07
4.27729e-07
4.24746e-07
4.24286e-07
4.26045e-07
4.25064e-07
4.25573e-07
4.25727e-07
4.24603e-07
4.24081e-07
4.24433e-07
4.26043e-07
4.27743e-07
4.20435e-07
4.20435e-07
4.20435e-07
4.20434e-07
4.22091e-07
4.21516e-07
4.25062e-07
4.20435e-07
4.20435e-07
4.20435e-07
4.20435e-07
4.20435e-07
4.20434e-07
4.1691e-07
4.21011e-07
4.24746e-07
4.25574e-07
4.20435e-07
4.20435e-07
4.20435e-07
4.20435e-07
4.20435e-07
4.20434e-07
4.1503e-07
4.21078e-07
4.24286e-07
4.25727e-07
4.20435e-07
4.20435e-07
4.20435e-07
4.20435e-07
4.20435e-07
4.20435e-07
4.15087e-07
4.20785e-07
4.24603e-07
4.20435e-07
4.20435e-07
4.20435e-07
4.20435e-07
4.20435e-07
4.20434e-07
4.15471e-07
4.18311e-07
4.24085e-07
4.2209e-07
4.20435e-07
4.20435e-07
4.20435e-07
4.20435e-07
4.11954e-07
4.18478e-07
4.21773e-07
4.24431e-07
4.21514e-07
4.16908e-07
4.15025e-07
4.1508e-07
4.15463e-07
4.18473e-07
4.18369e-07
4.21003e-07
4.21075e-07
4.20782e-07
4.18308e-07
4.21784e-07
4.18802e-07
4.18341e-07
4.20098e-07
4.1912e-07
4.19629e-07
4.19782e-07
4.18658e-07
4.18138e-07
4.18486e-07
4.20098e-07
4.21797e-07
4.1449e-07
4.1449e-07
4.1449e-07
4.14489e-07
4.16146e-07
4.15571e-07
4.19117e-07
4.1449e-07
4.1449e-07
4.1449e-07
4.1449e-07
4.1449e-07
4.1449e-07
4.10965e-07
4.15066e-07
4.18801e-07
4.19628e-07
4.14489e-07
4.1449e-07
4.14489e-07
4.1449e-07
4.14489e-07
4.1449e-07
4.09085e-07
4.15133e-07
4.18341e-07
4.19782e-07
4.1449e-07
4.1449e-07
4.1449e-07
4.1449e-07
4.1449e-07
4.14489e-07
4.09142e-07
4.1484e-07
4.18658e-07
4.14489e-07
4.1449e-07
4.1449e-07
4.1449e-07
4.1449e-07
4.14489e-07
4.09526e-07
4.12366e-07
4.1814e-07
4.16145e-07
4.14489e-07
4.1449e-07
4.1449e-07
4.14489e-07
4.06009e-07
4.12533e-07
4.15828e-07
4.18486e-07
4.15569e-07
4.10963e-07
4.09081e-07
4.09136e-07
4.09518e-07
4.12528e-07
4.12424e-07
4.15058e-07
4.15131e-07
4.14838e-07
4.12363e-07
4.15839e-07
4.12857e-07
4.12396e-07
4.14153e-07
4.13175e-07
4.13682e-07
4.13836e-07
4.12713e-07
4.12193e-07
4.12541e-07
4.14153e-07
4.15852e-07
4.08545e-07
4.08544e-07
4.08544e-07
4.08544e-07
4.10201e-07
4.09626e-07
4.13172e-07
4.08544e-07
4.08544e-07
4.08544e-07
4.08544e-07
4.08544e-07
4.08544e-07
4.0502e-07
4.09121e-07
4.12856e-07
4.13683e-07
4.08544e-07
4.08544e-07
4.08544e-07
4.08544e-07
4.08544e-07
4.08544e-07
4.0314e-07
4.09188e-07
4.12396e-07
4.13837e-07
4.08544e-07
4.08544e-07
4.08544e-07
4.08544e-07
4.08544e-07
4.08544e-07
4.03196e-07
4.08895e-07
4.12712e-07
4.08544e-07
4.08544e-07
4.08544e-07
4.08544e-07
4.08544e-07
4.08544e-07
4.03581e-07
4.06421e-07
4.12195e-07
4.102e-07
4.08544e-07
4.08544e-07
4.08544e-07
4.08544e-07
4.00064e-07
4.06588e-07
4.09883e-07
4.12541e-07
4.09624e-07
4.05018e-07
4.03135e-07
4.03191e-07
4.03572e-07
4.06583e-07
4.06479e-07
4.09113e-07
4.09185e-07
4.08893e-07
4.06418e-07
4.09894e-07
4.06911e-07
4.0645e-07
4.08207e-07
4.07228e-07
4.07737e-07
4.07891e-07
4.06768e-07
4.06248e-07
4.06596e-07
4.08207e-07
4.09906e-07
4.02599e-07
4.02599e-07
4.02599e-07
4.02599e-07
4.04256e-07
4.03681e-07
4.07226e-07
4.02599e-07
4.02599e-07
4.02599e-07
4.02599e-07
4.02599e-07
4.02599e-07
3.99074e-07
4.03175e-07
4.06911e-07
4.07738e-07
4.02599e-07
4.02599e-07
4.02599e-07
4.02599e-07
4.02599e-07
4.02599e-07
3.97195e-07
4.03242e-07
4.0645e-07
4.07891e-07
4.02599e-07
4.02599e-07
4.02599e-07
4.02599e-07
4.02599e-07
4.02599e-07
3.97251e-07
4.02949e-07
4.06767e-07
4.02599e-07
4.02599e-07
4.02599e-07
4.02599e-07
4.02599e-07
4.02599e-07
3.97635e-07
4.00476e-07
4.06249e-07
4.04255e-07
4.02599e-07
4.02599e-07
4.02599e-07
4.02599e-07
3.94118e-07
4.00643e-07
4.03937e-07
4.06596e-07