/*--------------------------------*- C++ -*----------------------------------*\
| =========                 |                                                 |
| \\      /  F ield         | OpenFOAM: The Open Source CFD Toolbox           |
|  \\    /   O peration     | Version:  v2012                                 |
|   \\  /    A nd           | Website:  www.openfoam.com                      |
|    \\/     M anipulation  |                                                 |
\*---------------------------------------------------------------------------*/
FoamFile
{
    version     2.0;
    format      ascii;
    class       volScalarField;
    location    "0.305";
    object      p;
}
// * * * * * * * * * * * * * * * * * * * * * * * * * * * * * * * * * * * * * //

dimensions      [0 2 -2 0 0 0 0];


internalField   nonuniform List<scalar> 
189320
(
5.18408e-07
5.18822e-07
5.11239e-07
5.10801e-07
5.08658e-07
5.07994e-07
5.09968e-07
5.11241e-07
5.0838e-07
5.11219e-07
5.07465e-07
5.08126e-07
5.0721e-07
5.06999e-07
5.07659e-07
5.07836e-07
5.09693e-07
5.10779e-07
5.08106e-07
5.06694e-07
5.06093e-07
5.05971e-07
5.0638e-07
5.07309e-07
5.0747e-07
5.11899e-07
5.183e-07
5.08599e-07
5.07196e-07
5.06088e-07
5.05614e-07
5.05529e-07
5.05803e-07
5.06571e-07
5.08081e-07
5.113e-07
5.18731e-07
5.07965e-07
5.06988e-07
5.05969e-07
5.05531e-07
5.05449e-07
5.05693e-07
5.06378e-07
5.07985e-07
5.09683e-07
5.0997e-07
5.0766e-07
5.06384e-07
5.05808e-07
5.05695e-07
5.06047e-07
5.06911e-07
5.07925e-07
5.20621e-07
5.1125e-07
5.07844e-07
5.07322e-07
5.06585e-07
5.06387e-07
5.06914e-07
5.07924e-07
5.0734e-07
5.11446e-07
5.08395e-07
5.09712e-07
5.07503e-07
5.08114e-07
5.08004e-07
5.07933e-07
5.07341e-07
5.06474e-07
5.1192e-07
5.11332e-07
5.09727e-07
5.2064e-07
5.11458e-07
4.99482e-07
4.9926e-07
5.01008e-07
4.99589e-07
4.99653e-07
4.99417e-07
4.99474e-07
4.98947e-07
4.9954e-07
5.01004e-07
5.01073e-07
4.93978e-07
4.93736e-07
4.93738e-07
4.9396e-07
4.95593e-07
4.9619e-07
4.99566e-07
4.93972e-07
4.92615e-07
4.93138e-07
4.93129e-07
4.92615e-07
4.93991e-07
4.92322e-07
4.95713e-07
4.99469e-07
4.99649e-07
4.93737e-07
4.93127e-07
4.93341e-07
4.93337e-07
4.93133e-07
4.93728e-07
4.91889e-07
4.95279e-07
4.99256e-07
4.99422e-07
4.9374e-07
4.93128e-07
4.93337e-07
4.93336e-07
4.93136e-07
4.93733e-07
4.91808e-07
4.95895e-07
4.9948e-07
4.93959e-07
4.92614e-07
4.93133e-07
4.93123e-07
4.92617e-07
4.93975e-07
4.91925e-07
4.92736e-07
4.98956e-07
4.95622e-07
4.93992e-07
4.93736e-07
4.93736e-07
4.93974e-07
4.8679e-07
4.93793e-07
4.97309e-07
4.99546e-07
4.96195e-07
4.9233e-07
4.9189e-07
4.91812e-07
4.91928e-07
4.93765e-07
4.93276e-07
4.95719e-07
4.95288e-07
4.95893e-07
4.92729e-07
4.97299e-07
4.93909e-07
4.93451e-07
4.95367e-07
4.94343e-07
4.94735e-07
4.94864e-07
4.94027e-07
4.93199e-07
4.93658e-07
4.95365e-07
4.97134e-07
4.89577e-07
4.8947e-07
4.89468e-07
4.89577e-07
4.91457e-07
4.90854e-07
4.94341e-07
4.89574e-07
4.88675e-07
4.88711e-07
4.88701e-07
4.88681e-07
4.89578e-07
4.85702e-07
4.89848e-07
4.93906e-07
4.94733e-07
4.89469e-07
4.88701e-07
4.88732e-07
4.88726e-07
4.88707e-07
4.89466e-07
4.84191e-07
4.90021e-07
4.9345e-07
4.94863e-07
4.8947e-07
4.887e-07
4.88727e-07
4.88727e-07
4.88708e-07
4.89467e-07
4.84251e-07
4.89986e-07
4.94022e-07
4.89574e-07
4.88676e-07
4.88707e-07
4.88699e-07
4.8868e-07
4.89578e-07
4.84466e-07
4.87074e-07
4.93201e-07
4.91461e-07
4.89579e-07
4.89469e-07
4.89467e-07
4.89577e-07
4.80797e-07
4.87585e-07
4.90812e-07
4.93661e-07
4.90858e-07
4.85706e-07
4.84203e-07
4.84254e-07
4.84475e-07
4.87593e-07
4.87156e-07
4.89834e-07
4.90019e-07
4.89984e-07
4.87079e-07
4.90839e-07
4.88581e-07
4.88112e-07
4.90002e-07
4.89214e-07
4.8968e-07
4.89877e-07
4.88836e-07
4.8789e-07
4.8826e-07
4.90003e-07
4.9211e-07
4.84601e-07
4.84566e-07
4.84565e-07
4.84598e-07
4.86057e-07
4.85427e-07
4.89209e-07
4.84601e-07
4.8426e-07
4.84239e-07
4.84236e-07
4.84259e-07
4.84601e-07
4.80432e-07
4.84507e-07
4.88583e-07
4.89683e-07
4.84571e-07
4.84237e-07
4.84228e-07
4.84225e-07
4.84236e-07
4.84565e-07
4.78468e-07
4.84632e-07
4.88114e-07
4.89879e-07
4.84569e-07
4.84235e-07
4.84225e-07
4.84225e-07
4.84237e-07
4.84566e-07
4.78473e-07
4.84607e-07
4.88837e-07
4.84601e-07
4.84259e-07
4.84237e-07
4.84234e-07
4.84259e-07
4.84598e-07
4.78803e-07
4.81681e-07
4.87887e-07
4.86058e-07
4.84602e-07
4.84569e-07
4.84568e-07
4.846e-07
4.7508e-07
4.8208e-07
4.85437e-07
4.88257e-07
4.85425e-07
4.80437e-07
4.78473e-07
4.78472e-07
4.78795e-07
4.82078e-07
4.81718e-07
4.84514e-07
4.84627e-07
4.8461e-07
4.8168e-07
4.85439e-07
4.83482e-07
4.83011e-07
4.84894e-07
4.84155e-07
4.84684e-07
4.84889e-07
4.83746e-07
4.82785e-07
4.83135e-07
4.84886e-07
4.87112e-07
4.79581e-07
4.79574e-07
4.79574e-07
4.79582e-07
4.80939e-07
4.803e-07
4.84151e-07
4.79582e-07
4.79457e-07
4.79453e-07
4.79451e-07
4.79457e-07
4.79581e-07
4.75291e-07
4.79396e-07
4.83483e-07
4.84686e-07
4.79573e-07
4.79452e-07
4.79448e-07
4.79446e-07
4.79452e-07
4.79573e-07
4.73264e-07
4.79513e-07
4.83012e-07
4.84887e-07
4.79573e-07
4.79452e-07
4.79447e-07
4.79446e-07
4.79453e-07
4.79573e-07
4.73294e-07
4.795e-07
4.83742e-07
4.79581e-07
4.79457e-07
4.79452e-07
4.7945e-07
4.79457e-07
4.79582e-07
4.73697e-07
4.76554e-07
4.82786e-07
4.80942e-07
4.79582e-07
4.79574e-07
4.79574e-07
4.79582e-07
4.69896e-07
4.76976e-07
4.80308e-07
4.83135e-07
4.80298e-07
4.75294e-07
4.73267e-07
4.73289e-07
4.73692e-07
4.76974e-07
4.7659e-07
4.79397e-07
4.7951e-07
4.79499e-07
4.76556e-07
4.80308e-07
4.78452e-07
4.77981e-07
4.79855e-07
4.79136e-07
4.79686e-07
4.7989e-07
4.78713e-07
4.7775e-07
4.78094e-07
4.79852e-07
4.82116e-07
4.74572e-07
4.74569e-07
4.74569e-07
4.74571e-07
4.75901e-07
4.75257e-07
4.79134e-07
4.7457e-07
4.74527e-07
4.74523e-07
4.74524e-07
4.74526e-07
4.7457e-07
4.70255e-07
4.7437e-07
4.7845e-07
4.79686e-07
4.74568e-07
4.74524e-07
4.74522e-07
4.74522e-07
4.74523e-07
4.74568e-07
4.68207e-07
4.74473e-07
4.77981e-07
4.7989e-07
4.7457e-07
4.74524e-07
4.74522e-07
4.74523e-07
4.74524e-07
4.74568e-07
4.68239e-07
4.74467e-07
4.78713e-07
4.74571e-07
4.74527e-07
4.74523e-07
4.74523e-07
4.74527e-07
4.7457e-07
4.68666e-07
4.71513e-07
4.77748e-07
4.75899e-07
4.74571e-07
4.74569e-07
4.74568e-07
4.7457e-07
4.64833e-07
4.71938e-07
4.75266e-07
4.78093e-07
4.75258e-07
4.70254e-07
4.68204e-07
4.68233e-07
4.68659e-07
4.71934e-07
4.7154e-07
4.74361e-07
4.74472e-07
4.74464e-07
4.71514e-07
4.75271e-07
4.73441e-07
4.7297e-07
4.74841e-07
4.74134e-07
4.74693e-07
4.74893e-07
4.73695e-07
4.72737e-07
4.7308e-07
4.74839e-07
4.77115e-07
4.69562e-07
4.69568e-07
4.69567e-07
4.69563e-07
4.70885e-07
4.70242e-07
4.74132e-07
4.69566e-07
4.69549e-07
4.6955e-07
4.6955e-07
4.69549e-07
4.69567e-07
4.65238e-07
4.69351e-07
4.7344e-07
4.74694e-07
4.69567e-07
4.69548e-07
4.69549e-07
4.69549e-07
4.69548e-07
4.69565e-07
4.63185e-07
4.69459e-07
4.7297e-07
4.74891e-07
4.69566e-07
4.69548e-07
4.69548e-07
4.69549e-07
4.69548e-07
4.69565e-07
4.63225e-07
4.69456e-07
4.73696e-07
4.69565e-07
4.6955e-07
4.69549e-07
4.6955e-07
4.6955e-07
4.69565e-07
4.63658e-07
4.66499e-07
4.72735e-07
4.70885e-07
4.69564e-07
4.69565e-07
4.69565e-07
4.69564e-07
4.59814e-07
4.66931e-07
4.70251e-07
4.73078e-07
4.7024e-07
4.6524e-07
4.63186e-07
4.63226e-07
4.63655e-07
4.66924e-07
4.66522e-07
4.69343e-07
4.69461e-07
4.69456e-07
4.66497e-07
4.70257e-07
4.68438e-07
4.67967e-07
4.69836e-07
4.69131e-07
4.69693e-07
4.69889e-07
4.68689e-07
4.67731e-07
4.68074e-07
4.69835e-07
4.72115e-07
4.64562e-07
4.6456e-07
4.6456e-07
4.64562e-07
4.6588e-07
4.65237e-07
4.69129e-07
4.64561e-07
4.64557e-07
4.64556e-07
4.64556e-07
4.64558e-07
4.64562e-07
4.60237e-07
4.64348e-07
4.68436e-07
4.69693e-07
4.64561e-07
4.64557e-07
4.64556e-07
4.64556e-07
4.64557e-07
4.64561e-07
4.58182e-07
4.64458e-07
4.67967e-07
4.6989e-07
4.64561e-07
4.64556e-07
4.64556e-07
4.64556e-07
4.64557e-07
4.64562e-07
4.58223e-07
4.64453e-07
4.6869e-07
4.64562e-07
4.64557e-07
4.64557e-07
4.64557e-07
4.64557e-07
4.64562e-07
4.58659e-07
4.61494e-07
4.6773e-07
4.65879e-07
4.64561e-07
4.6456e-07
4.64561e-07
4.64562e-07
4.54807e-07
4.61924e-07
4.65244e-07
4.68072e-07
4.65233e-07
4.60234e-07
4.58178e-07
4.58218e-07
4.58651e-07
4.61918e-07
4.61517e-07
4.64339e-07
4.64454e-07
4.64452e-07
4.61491e-07
4.65251e-07
4.63434e-07
4.62963e-07
4.64832e-07
4.64128e-07
4.64691e-07
4.64889e-07
4.63686e-07
4.62728e-07
4.6307e-07
4.64831e-07
4.67115e-07
4.59559e-07
4.59559e-07
4.59559e-07
4.5956e-07
4.60875e-07
4.60232e-07
4.64127e-07
4.59561e-07
4.59557e-07
4.59556e-07
4.59556e-07
4.59557e-07
4.59557e-07
4.55232e-07
4.59344e-07
4.63433e-07
4.64692e-07
4.59559e-07
4.59556e-07
4.59556e-07
4.59556e-07
4.59557e-07
4.59558e-07
4.53175e-07
4.59454e-07
4.62964e-07
4.6489e-07
4.5956e-07
4.59558e-07
4.59558e-07
4.59557e-07
4.59557e-07
4.59558e-07
4.53219e-07
4.59449e-07
4.63687e-07
4.59558e-07
4.59554e-07
4.59554e-07
4.59555e-07
4.59556e-07
4.5956e-07
4.53656e-07
4.56491e-07
4.62728e-07
4.60874e-07
4.59561e-07
4.59561e-07
4.5956e-07
4.59561e-07
4.49805e-07
4.56921e-07
4.60241e-07
4.63069e-07
4.6023e-07
4.55232e-07
4.53173e-07
4.53214e-07
4.53648e-07
4.56915e-07
4.56512e-07
4.59337e-07
4.59452e-07
4.59449e-07
4.56489e-07
4.60249e-07
4.58432e-07
4.57961e-07
4.5983e-07
4.59127e-07
4.59691e-07
4.59887e-07
4.58682e-07
4.57725e-07
4.58067e-07
4.59828e-07
4.62113e-07
4.54557e-07
4.54557e-07
4.54557e-07
4.54556e-07
4.55872e-07
4.55229e-07
4.59126e-07
4.54557e-07
4.54555e-07
4.54554e-07
4.54556e-07
4.54555e-07
4.54556e-07
4.50229e-07
4.54341e-07
4.58431e-07
4.59691e-07
4.54557e-07
4.54557e-07
4.54556e-07
4.54557e-07
4.54556e-07
4.54557e-07
4.48173e-07
4.54451e-07
4.57961e-07
4.59888e-07
4.54557e-07
4.54555e-07
4.54555e-07
4.54556e-07
4.54554e-07
4.54557e-07
4.48216e-07
4.54447e-07
4.58683e-07
4.54558e-07
4.54556e-07
4.54556e-07
4.54557e-07
4.54555e-07
4.54558e-07
4.48654e-07
4.51488e-07
4.57725e-07
4.55869e-07
4.54557e-07
4.54557e-07
4.54557e-07
4.54557e-07
4.44803e-07
4.51918e-07
4.55237e-07
4.58066e-07
4.55226e-07
4.50228e-07
4.48167e-07
4.48212e-07
4.48645e-07
4.51912e-07
4.51509e-07
4.54334e-07
4.54449e-07
4.54446e-07
4.51485e-07
4.55244e-07
4.5343e-07
4.52959e-07
4.5483e-07
4.54127e-07
4.54689e-07
4.54885e-07
4.53679e-07
4.52724e-07
4.53065e-07
4.54827e-07
4.57109e-07
4.49554e-07
4.49554e-07
4.49554e-07
4.49553e-07
4.50869e-07
4.50227e-07
4.54123e-07
4.49554e-07
4.49555e-07
4.49554e-07
4.49554e-07
4.49554e-07
4.49554e-07
4.45228e-07
4.4934e-07
4.53429e-07
4.54689e-07
4.49554e-07
4.49554e-07
4.49554e-07
4.49554e-07
4.49554e-07
4.49554e-07
4.43171e-07
4.4945e-07
4.52959e-07
4.54885e-07
4.49554e-07
4.49554e-07
4.49554e-07
4.49554e-07
4.49554e-07
4.49554e-07
4.43216e-07
4.49446e-07
4.5368e-07
4.49554e-07
4.49554e-07
4.49554e-07
4.49554e-07
4.49555e-07
4.49554e-07
4.43653e-07
4.46486e-07
4.52723e-07
4.50867e-07
4.49554e-07
4.49554e-07
4.49554e-07
4.49554e-07
4.39801e-07
4.46916e-07
4.50236e-07
4.53064e-07
4.50224e-07
4.45226e-07
4.43165e-07
4.43209e-07
4.43644e-07
4.46911e-07
4.46507e-07
4.49332e-07
4.49447e-07
4.49444e-07
4.46483e-07
4.50243e-07
4.48427e-07
4.47956e-07
4.49823e-07
4.49125e-07
4.49687e-07
4.49882e-07
4.48677e-07
4.4772e-07
4.4806e-07
4.49824e-07
4.52107e-07
4.44551e-07
4.44551e-07
4.44551e-07
4.44551e-07
4.45866e-07
4.45223e-07
4.49121e-07
4.44551e-07
4.44551e-07
4.44551e-07
4.44551e-07
4.44552e-07
4.44551e-07
4.40225e-07
4.44337e-07
4.48426e-07
4.49687e-07
4.44552e-07
4.44552e-07
4.44552e-07
4.44552e-07
4.44551e-07
4.44551e-07
4.3817e-07
4.44447e-07
4.47956e-07
4.49884e-07
4.44552e-07
4.44552e-07
4.44552e-07
4.44552e-07
4.44551e-07
4.44552e-07
4.38214e-07
4.44443e-07
4.48678e-07
4.44552e-07
4.44552e-07
4.44552e-07
4.44552e-07
4.44552e-07
4.44551e-07
4.3865e-07
4.41483e-07
4.4772e-07
4.45864e-07
4.44551e-07
4.44551e-07
4.44551e-07
4.44551e-07
4.34798e-07
4.41913e-07
4.45232e-07
4.48061e-07
4.45221e-07
4.40223e-07
4.38163e-07
4.38207e-07
4.38641e-07
4.41908e-07
4.41504e-07
4.44329e-07
4.44445e-07
4.44442e-07
4.4148e-07
4.4524e-07
4.43425e-07
4.42953e-07
4.44824e-07
4.44122e-07
4.44685e-07
4.4488e-07
4.43676e-07
4.42716e-07
4.43058e-07
4.44822e-07
4.47106e-07
4.39549e-07
4.39549e-07
4.39549e-07
4.39549e-07
4.40863e-07
4.4022e-07
4.44118e-07
4.39549e-07
4.39549e-07
4.39549e-07
4.39549e-07
4.39549e-07
4.39549e-07
4.35222e-07
4.39334e-07
4.43424e-07
4.44685e-07
4.39549e-07
4.39549e-07
4.39549e-07
4.39549e-07
4.39549e-07
4.39549e-07
4.33167e-07
4.39445e-07
4.42954e-07
4.44881e-07
4.39549e-07
4.39549e-07
4.39549e-07
4.39549e-07
4.39549e-07
4.39549e-07
4.33211e-07
4.39441e-07
4.43675e-07
4.39549e-07
4.39549e-07
4.39549e-07
4.39549e-07
4.39549e-07
4.39549e-07
4.33647e-07
4.3648e-07
4.42717e-07
4.40862e-07
4.39549e-07
4.39549e-07
4.39549e-07
4.39549e-07
4.29795e-07
4.36911e-07
4.40229e-07
4.43058e-07
4.40219e-07
4.35221e-07
4.3316e-07
4.33203e-07
4.33638e-07
4.36905e-07
4.36502e-07
4.39326e-07
4.39442e-07
4.39439e-07
4.36478e-07
4.40237e-07
4.38422e-07
4.37951e-07
4.3982e-07
4.3912e-07
4.39682e-07
4.39878e-07
4.38674e-07
4.37714e-07
4.38056e-07
4.39819e-07
4.42103e-07
4.34547e-07
4.34547e-07
4.34547e-07
4.34547e-07
4.35861e-07
4.35218e-07
4.39116e-07
4.34547e-07
4.34547e-07
4.34547e-07
4.34547e-07
4.34547e-07
4.34547e-07
4.3022e-07
4.34332e-07
4.38421e-07
4.39682e-07
4.34547e-07
4.34547e-07
4.34547e-07
4.34547e-07
4.34547e-07
4.34547e-07
4.28165e-07
4.34442e-07
4.37951e-07
4.39879e-07
4.34547e-07
4.34547e-07
4.34547e-07
4.34547e-07
4.34547e-07
4.34547e-07
4.28209e-07
4.34439e-07
4.38673e-07
4.34547e-07
4.34547e-07
4.34547e-07
4.34547e-07
4.34547e-07
4.34547e-07
4.28645e-07
4.31478e-07
4.37715e-07
4.35859e-07
4.34547e-07
4.34547e-07
4.34547e-07
4.34547e-07
4.24793e-07
4.31908e-07
4.35227e-07
4.38056e-07
4.35216e-07
4.30218e-07
4.28158e-07
4.28201e-07
4.28636e-07
4.31903e-07
4.315e-07
4.34324e-07
4.3444e-07
4.34437e-07
4.31475e-07
4.35235e-07
4.3342e-07
4.32949e-07
4.34817e-07
4.34118e-07
4.3468e-07
4.34875e-07
4.33671e-07
4.32712e-07
4.33055e-07
4.34817e-07
4.37101e-07
4.29544e-07
4.29544e-07
4.29544e-07
4.29544e-07
4.30859e-07
4.30216e-07
4.34114e-07
4.29544e-07
4.29544e-07
4.29544e-07
4.29544e-07
4.29544e-07
4.29544e-07
4.25218e-07
4.2933e-07
4.33419e-07
4.3468e-07
4.29544e-07
4.29544e-07
4.29544e-07
4.29544e-07
4.29544e-07
4.29544e-07
4.23163e-07
4.2944e-07
4.32949e-07
4.34876e-07
4.29544e-07
4.29544e-07
4.29544e-07
4.29544e-07
4.29544e-07
4.29544e-07
4.23206e-07
4.29436e-07
4.3367e-07
4.29544e-07
4.29544e-07
4.29544e-07
4.29544e-07
4.29544e-07
4.29544e-07
4.23643e-07
4.26476e-07
4.32713e-07
4.30857e-07
4.29544e-07
4.29544e-07
4.29544e-07
4.29544e-07
4.19791e-07
4.26906e-07
4.30225e-07
4.33054e-07
4.30214e-07
4.25216e-07
4.23155e-07
4.23198e-07
4.23634e-07
4.269e-07
4.26497e-07
4.29322e-07
4.29438e-07
4.29434e-07
4.26473e-07
4.30232e-07
4.28417e-07
4.27946e-07
4.29815e-07
4.29115e-07
4.29677e-07
4.29873e-07
4.28668e-07
4.27709e-07
4.28051e-07
4.29814e-07
4.32097e-07
4.24542e-07
4.24542e-07
4.24542e-07
4.24542e-07
4.25856e-07
4.25213e-07
4.29111e-07
4.24542e-07
4.24542e-07
4.24542e-07
4.24542e-07
4.24542e-07
4.24542e-07
4.20215e-07
4.24327e-07
4.28416e-07
4.29677e-07
4.24542e-07
4.24542e-07
4.24542e-07
4.24542e-07
4.24542e-07
4.24542e-07
4.1816e-07
4.24437e-07
4.27946e-07
4.29873e-07
4.24542e-07
4.24542e-07
4.24542e-07
4.24542e-07
4.24542e-07
4.24542e-07
4.18204e-07
4.24433e-07
4.28667e-07
4.24541e-07
4.24542e-07
4.24542e-07
4.24541e-07
4.24542e-07
4.24541e-07
4.1864e-07
4.21473e-07
4.2771e-07
4.25854e-07
4.24541e-07
4.24542e-07
4.24542e-07
4.24541e-07
4.14788e-07
4.21903e-07
4.25222e-07
4.28051e-07
4.25211e-07
4.20213e-07
4.18152e-07
4.18195e-07
4.18631e-07
4.21898e-07
4.21494e-07
4.24318e-07
4.24434e-07
4.24431e-07
4.2147e-07
4.25229e-07
4.23414e-07
4.22944e-07
4.24812e-07
4.24113e-07
4.24675e-07
4.2487e-07
4.23666e-07
4.22708e-07
4.23048e-07
4.24812e-07
4.27095e-07
4.19539e-07
4.1954e-07
4.1954e-07
4.19539e-07
4.20854e-07
4.20211e-07
4.24109e-07
4.19539e-07
4.19539e-07
4.19539e-07
4.19539e-07
4.19539e-07
4.19539e-07
4.15213e-07
4.19325e-07
4.23414e-07
4.24675e-07
4.19539e-07
4.19539e-07
4.19539e-07
4.19539e-07
4.19539e-07
4.19539e-07
4.13157e-07
4.19435e-07
4.22944e-07
4.24871e-07
4.19539e-07
4.19539e-07
4.19539e-07
4.19539e-07
4.19539e-07
4.19539e-07
4.13201e-07
4.19431e-07
4.23665e-07
4.19539e-07
4.19539e-07
4.19539e-07
4.19539e-07
4.19539e-07
4.19539e-07
4.13638e-07
4.16471e-07
4.22707e-07
4.20852e-07
4.19539e-07
4.19539e-07
4.19539e-07
4.19539e-07
4.09785e-07
4.16901e-07
4.20219e-07
4.23048e-07
4.20209e-07
4.15211e-07
4.1315e-07
4.13194e-07
4.13629e-07
4.16895e-07
4.16492e-07
4.19316e-07
4.19432e-07
4.19429e-07
4.16467e-07
4.20227e-07
4.18412e-07
4.17941e-07
4.1981e-07
4.1911e-07
4.19672e-07
4.19868e-07
4.18664e-07
4.17706e-07
4.18046e-07
4.19809e-07
4.22092e-07
4.14537e-07
4.14537e-07
4.14537e-07
4.14537e-07
4.15851e-07
4.15209e-07
4.19106e-07
4.14537e-07
4.14537e-07
4.14537e-07
4.14537e-07
4.14537e-07
4.14537e-07
4.1021e-07
4.14322e-07
4.18411e-07
4.19672e-07
4.14537e-07
4.14537e-07
4.14537e-07
4.14537e-07
4.14537e-07
4.14537e-07
4.08155e-07
4.14433e-07
4.17942e-07
4.19869e-07
4.14537e-07
4.14537e-07
4.14537e-07
4.14537e-07
4.14537e-07
4.14537e-07
4.08199e-07
4.14429e-07
4.18663e-07
4.14537e-07
4.14537e-07
4.14537e-07
4.14537e-07
4.14537e-07
4.14537e-07
4.08635e-07
4.11468e-07
4.17705e-07
4.15849e-07
4.14537e-07
4.14537e-07
4.14537e-07
4.14537e-07
4.04783e-07
4.11898e-07
4.15217e-07
4.18046e-07
4.15206e-07
4.10209e-07
4.08149e-07
4.08193e-07
4.08627e-07
4.11893e-07
4.1149e-07
4.14314e-07
4.1443e-07
4.14427e-07
4.11465e-07
4.15225e-07
4.13409e-07
4.12939e-07
4.14807e-07
4.14107e-07
4.1467e-07
4.14865e-07
4.13661e-07
4.12703e-07
4.13043e-07
4.14807e-07
4.1709e-07
4.09534e-07
4.09534e-07
4.09534e-07
4.09534e-07
4.10848e-07
4.10206e-07
4.14103e-07
4.09534e-07
4.09534e-07
4.09534e-07
4.09534e-07
4.09534e-07
4.09534e-07
4.05207e-07
4.09319e-07
4.13409e-07
4.14669e-07
4.09534e-07
4.09534e-07
4.09534e-07
4.09534e-07
4.09534e-07
4.09534e-07
4.03152e-07
4.0943e-07
4.12939e-07
4.14866e-07
4.09534e-07
4.09534e-07
4.09534e-07
4.09534e-07
4.09534e-07
4.09534e-07
4.03196e-07
4.09426e-07
4.1366e-07
4.09534e-07
4.09534e-07
4.09534e-07
4.09534e-07
4.09534e-07
4.09534e-07
4.03632e-07
4.06465e-07
4.12702e-07
4.10846e-07
4.09534e-07
4.09534e-07
4.09534e-07
4.09534e-07
3.9978e-07
4.06895e-07
4.10214e-07
4.13043e-07
4.10203e-07
4.05205e-07
4.03144e-07
4.03188e-07
4.03623e-07
4.0689e-07
4.06486e-07
4.09311e-07
4.09427e-07
4.09422e-07
4.06461e-07
4.10221e-07
4.08407e-07
4.07936e-07
4.09804e-07
4.09105e-07
4.09667e-07
4.09863e-07
4.08658e-07
4.077e-07
4.08041e-07
4.09804e-07
4.12087e-07
4.04532e-07
4.04532e-07
4.04532e-07
4.04531e-07
4.05846e-07
4.05203e-07
4.09101e-07
4.04532e-07
4.04532e-07
4.04532e-07
4.04532e-07
4.04532e-07
4.04531e-07
4.00204e-07
4.04316e-07
4.08406e-07
4.09667e-07
4.04532e-07
4.04532e-07
4.04532e-07
4.04532e-07
4.04532e-07
4.04531e-07
3.9815e-07
4.04427e-07
4.07936e-07
4.09863e-07
4.04532e-07
4.04532e-07
4.04532e-07
4.04532e-07
4.04532e-07
4.04531e-07
3.98193e-07
4.04423e-07
4.08657e-07
4.04531e-07
4.04532e-07
4.04532e-07
4.04532e-07
4.04532e-07
4.04531e-07
3.9863e-07
4.01463e-07
4.077e-07
4.05844e-07
4.04531e-07
4.04531e-07
4.04531e-07
4.04531e-07
3.94778e-07
4.01893e-07
4.05212e-07
4.08041e-07
4.05201e-07
4.00203e-07
3.98145e-07
3.98188e-07
3.98622e-07
4.01888e-07
4.01484e-07
4.04309e-07
4.04425e-07
4.04421e-07
4.01458e-07
4.0522e-07
4.03405e-07
4.02934e-07
4.04802e-07
4.04103e-07
4.04665e-07
4.0486e-07
4.03656e-07
4.02698e-07
4.03039e-07
4.04802e-07
4.07085e-07
3.99529e-07
3.99529e-07
3.99529e-07
3.99529e-07
4.00845e-07
4.00201e-07
4.04099e-07
3.99529e-07
3.9953e-07
3.9953e-07
3.9953e-07
3.9953e-07
3.99529e-07
3.95202e-07
3.99314e-07
4.03404e-07
4.04665e-07
3.99529e-07
3.9953e-07
3.9953e-07
3.9953e-07
3.9953e-07
3.99529e-07
3.93148e-07
3.99425e-07
4.02934e-07
4.04861e-07
3.9953e-07
3.9953e-07
3.9953e-07
3.99529e-07
3.9953e-07
3.99529e-07
3.93191e-07
3.99421e-07
4.03655e-07
3.99529e-07
3.9953e-07
3.9953e-07
3.9953e-07
3.9953e-07
3.99529e-07
3.93628e-07
3.96461e-07
4.02698e-07
4.00842e-07
3.99529e-07
3.99529e-07
3.99529e-07
3.99529e-07
3.89776e-07
3.96891e-07
4.0021e-07
4.03039e-07
4.00199e-07
3.95201e-07
3.93142e-07
3.93186e-07
3.93619e-07
3.96885e-07
3.96482e-07
3.99307e-07
3.99423e-07
3.99419e-07
3.96457e-07
4.00217e-07
3.98403e-07
3.97932e-07
3.998e-07
3.991e-07
3.99663e-07
3.99859e-07
3.98654e-07
3.97695e-07
3.98037e-07
3.998e-07
4.02083e-07
3.94528e-07
3.94528e-07
3.94528e-07
3.94528e-07
3.95843e-07
3.95199e-07
3.99097e-07
3.94528e-07
3.94528e-07
3.94528e-07
3.94528e-07
3.94528e-07
3.94528e-07
3.902e-07
3.94313e-07
3.98402e-07
3.99663e-07
3.94528e-07
3.94528e-07
3.94528e-07
3.94528e-07
3.94528e-07
3.94528e-07
3.88146e-07
3.94423e-07
3.97932e-07
3.99859e-07
3.94528e-07
3.94528e-07
3.94528e-07
3.94528e-07
3.94528e-07
3.94528e-07
3.88189e-07
3.94419e-07
3.98653e-07
3.94528e-07
3.94528e-07
3.94528e-07
3.94528e-07
3.94528e-07
3.94528e-07
3.88626e-07
3.91459e-07
3.97696e-07
3.9584e-07
3.94528e-07
3.94528e-07
3.94528e-07
3.94528e-07
3.84774e-07
3.91889e-07
3.95208e-07
3.98037e-07
3.95197e-07
3.90199e-07
3.8814e-07
3.88184e-07
3.88617e-07
3.91884e-07
3.9148e-07
3.94305e-07
3.94421e-07
3.94417e-07
3.91455e-07
3.95215e-07
3.93401e-07
3.9293e-07
3.94798e-07
3.94098e-07
3.94661e-07
3.94856e-07
3.93652e-07
3.92693e-07
3.93035e-07
3.94798e-07
3.97081e-07
3.89525e-07
3.89525e-07
3.89525e-07
3.89525e-07
3.90841e-07
3.90198e-07
3.94095e-07
3.89525e-07
3.89525e-07
3.89525e-07
3.89525e-07
3.89525e-07
3.89525e-07
3.85198e-07
3.89311e-07
3.934e-07
3.94661e-07
3.89525e-07
3.89525e-07
3.89525e-07
3.89525e-07
3.89525e-07
3.89525e-07
3.83144e-07
3.89421e-07
3.9293e-07
3.94857e-07
3.89526e-07
3.89525e-07
3.89525e-07
3.89525e-07
3.89525e-07
3.89525e-07
3.83187e-07
3.89417e-07
3.93651e-07
3.89525e-07
3.89526e-07
3.89525e-07
3.89525e-07
3.89525e-07
3.89525e-07
3.83624e-07
3.86457e-07
3.92694e-07
3.90838e-07
3.89525e-07
3.89526e-07
3.89526e-07
3.89525e-07
3.79772e-07
3.86887e-07
3.90206e-07
3.93035e-07
3.90195e-07
3.85198e-07
3.83138e-07
3.83182e-07
3.83615e-07
3.86882e-07
3.86478e-07
3.89303e-07
3.89419e-07
3.89415e-07
3.86453e-07
3.90213e-07
3.88398e-07
3.87928e-07
3.89795e-07
3.89096e-07
3.89659e-07
3.89854e-07
3.8865e-07
3.8769e-07
3.88032e-07
3.89795e-07
3.92078e-07
3.84523e-07
3.84523e-07
3.84523e-07
3.84523e-07
3.85839e-07
3.85195e-07
3.89092e-07
3.84523e-07
3.84523e-07
3.84523e-07
3.84523e-07
3.84523e-07
3.84523e-07
3.80196e-07
3.84309e-07
3.88397e-07
3.89658e-07
3.84523e-07
3.84523e-07
3.84523e-07
3.84523e-07
3.84523e-07
3.84523e-07
3.78141e-07
3.84419e-07
3.87928e-07
3.89855e-07
3.84523e-07
3.84523e-07
3.84523e-07
3.84523e-07
3.84523e-07
3.84523e-07
3.78185e-07
3.84415e-07
3.88649e-07
3.84523e-07
3.84523e-07
3.84523e-07
3.84523e-07
3.84523e-07
3.84523e-07
3.78622e-07
3.81455e-07
3.87691e-07
3.85835e-07
3.84523e-07
3.84523e-07
3.84523e-07
3.84523e-07
3.7477e-07
3.81885e-07
3.85204e-07
3.88032e-07
3.85193e-07
3.80195e-07
3.78136e-07
3.78179e-07
3.78613e-07
3.81879e-07
3.81476e-07
3.843e-07
3.84417e-07
3.84412e-07
3.8145e-07
3.8521e-07
3.83396e-07
3.82925e-07
3.84792e-07
3.84093e-07
3.84656e-07
3.84851e-07
3.83647e-07
3.82688e-07
3.8303e-07
3.84793e-07
3.87076e-07
3.79521e-07
3.79521e-07
3.79521e-07
3.79521e-07
3.80836e-07
3.80193e-07
3.8409e-07
3.79521e-07
3.79521e-07
3.79521e-07
3.79521e-07
3.79521e-07
3.79521e-07
3.75193e-07
3.79307e-07
3.83395e-07
3.84656e-07
3.79521e-07
3.79521e-07
3.79521e-07
3.79521e-07
3.79521e-07
3.79521e-07
3.73139e-07
3.79416e-07
3.82925e-07
3.84852e-07
3.79521e-07
3.79521e-07
3.79521e-07
3.79521e-07
3.79521e-07
3.79521e-07
3.73183e-07
3.79412e-07
3.83646e-07
3.79521e-07
3.79521e-07
3.79521e-07
3.79521e-07
3.79521e-07
3.79521e-07
3.73619e-07
3.76452e-07
3.82689e-07
3.80833e-07
3.79521e-07
3.79521e-07
3.79521e-07
3.79521e-07
3.69767e-07
3.76882e-07
3.80201e-07
3.8303e-07
3.8019e-07
3.75193e-07
3.73134e-07
3.73177e-07
3.7361e-07
3.76877e-07
3.76473e-07
3.79298e-07
3.79414e-07
3.7941e-07
3.76448e-07
3.80208e-07
3.78394e-07
3.77923e-07
3.7979e-07
3.79092e-07
3.79654e-07
3.7985e-07
3.78645e-07
3.77686e-07
3.78028e-07
3.79791e-07
3.82074e-07
3.74519e-07
3.74519e-07
3.74519e-07
3.74519e-07
3.75835e-07
3.75191e-07
3.79088e-07
3.74519e-07
3.74519e-07
3.74519e-07
3.74519e-07
3.74519e-07
3.74519e-07
3.70192e-07
3.74305e-07
3.78393e-07
3.79654e-07
3.74519e-07
3.74519e-07
3.74519e-07
3.74519e-07
3.74519e-07
3.74519e-07
3.68137e-07
3.74414e-07
3.77923e-07
3.79851e-07
3.74519e-07
3.74519e-07
3.74519e-07
3.74519e-07
3.74519e-07
3.74519e-07
3.68181e-07
3.7441e-07
3.78645e-07
3.74519e-07
3.74519e-07
3.74519e-07
3.74519e-07
3.74519e-07
3.74519e-07
3.68617e-07
3.7145e-07
3.77687e-07
3.75831e-07
3.74519e-07
3.74519e-07
3.74519e-07
3.74519e-07
3.64765e-07
3.7188e-07
3.75199e-07
3.78028e-07
3.75188e-07
3.70191e-07
3.68132e-07
3.68175e-07
3.68608e-07
3.71875e-07
3.71471e-07
3.74296e-07
3.74412e-07
3.74408e-07
3.71446e-07
3.75206e-07
3.73392e-07
3.72921e-07
3.7479e-07
3.7409e-07
3.74653e-07
3.74848e-07
3.73643e-07
3.72684e-07
3.73027e-07
3.74789e-07
3.77072e-07
3.69517e-07
3.69517e-07
3.69517e-07
3.69517e-07
3.70833e-07
3.70189e-07
3.74086e-07
3.69517e-07
3.69517e-07
3.69517e-07
3.69517e-07
3.69517e-07
3.69517e-07
3.6519e-07
3.69303e-07
3.73391e-07
3.74652e-07
3.69517e-07
3.69517e-07
3.69517e-07
3.69517e-07
3.69517e-07
3.69517e-07
3.63135e-07
3.69412e-07
3.72922e-07
3.74849e-07
3.69517e-07
3.69517e-07
3.69517e-07
3.69517e-07
3.69517e-07
3.69517e-07
3.63179e-07
3.69409e-07
3.73643e-07
3.69517e-07
3.69517e-07
3.69517e-07
3.69517e-07
3.69517e-07
3.69517e-07
3.63615e-07
3.66448e-07
3.72685e-07
3.70829e-07
3.69517e-07
3.69517e-07
3.69516e-07
3.69517e-07
3.59763e-07
3.66879e-07
3.70197e-07
3.73026e-07
3.70186e-07
3.65189e-07
3.6313e-07
3.63173e-07
3.63606e-07
3.66873e-07
3.6647e-07
3.69294e-07
3.6941e-07
3.69406e-07
3.66444e-07
3.70204e-07
3.6839e-07
3.6792e-07
3.69788e-07
3.69088e-07
3.69651e-07
3.69846e-07
3.68642e-07
3.67682e-07
3.68024e-07
3.69788e-07
3.72071e-07
3.64515e-07
3.64515e-07
3.64515e-07
3.64515e-07
3.65831e-07
3.65187e-07
3.69085e-07
3.64515e-07
3.64515e-07
3.64515e-07
3.64515e-07
3.64515e-07
3.64515e-07
3.60188e-07
3.64301e-07
3.6839e-07
3.6965e-07
3.64515e-07
3.64515e-07
3.64515e-07
3.64515e-07
3.64515e-07
3.64515e-07
3.58133e-07
3.64411e-07
3.6792e-07
3.69846e-07
3.64515e-07
3.64515e-07
3.64515e-07
3.64515e-07
3.64515e-07
3.64515e-07
3.58177e-07
3.64407e-07
3.68641e-07
3.64515e-07
3.64515e-07
3.64515e-07
3.64515e-07
3.64515e-07
3.64515e-07
3.58614e-07
3.61446e-07
3.67683e-07
3.65828e-07
3.64515e-07
3.64515e-07
3.64515e-07
3.64515e-07
3.54762e-07
3.61877e-07
3.65195e-07
3.68024e-07
3.65185e-07
3.60186e-07
3.58127e-07
3.5817e-07
3.58604e-07
3.61871e-07
3.61468e-07
3.64292e-07
3.64408e-07
3.64404e-07
3.61442e-07
3.65202e-07
3.63389e-07
3.62918e-07
3.64786e-07
3.64086e-07
3.64649e-07
3.64844e-07
3.6364e-07
3.6268e-07
3.63024e-07
3.64786e-07
3.6707e-07
3.59514e-07
3.59514e-07
3.59514e-07
3.59514e-07
3.60826e-07
3.60185e-07
3.64083e-07
3.59514e-07
3.59514e-07
3.59514e-07
3.59514e-07
3.59514e-07
3.59514e-07
3.55186e-07
3.59299e-07
3.63388e-07
3.64649e-07
3.59514e-07
3.59514e-07
3.59514e-07
3.59514e-07
3.59514e-07
3.59514e-07
3.53132e-07
3.59409e-07
3.62918e-07
3.64845e-07
3.59514e-07
3.59514e-07
3.59514e-07
3.59514e-07
3.59514e-07
3.59514e-07
3.53175e-07
3.59405e-07
3.6364e-07
3.59514e-07
3.59514e-07
3.59514e-07
3.59514e-07
3.59514e-07
3.59514e-07
3.53612e-07
3.56445e-07
3.62682e-07
3.60826e-07
3.59514e-07
3.59514e-07
3.59514e-07
3.59514e-07
3.4976e-07
3.56875e-07
3.60194e-07
3.63023e-07
3.60183e-07
3.55184e-07
3.53126e-07
3.53169e-07
3.53603e-07
3.56869e-07
3.56466e-07
3.59291e-07
3.59407e-07
3.59403e-07
3.56441e-07
3.60201e-07
3.58387e-07
3.57916e-07
3.59784e-07
3.59084e-07
3.59648e-07
3.59843e-07
3.58638e-07
3.57678e-07
3.58021e-07
3.59784e-07
3.62067e-07
3.54512e-07
3.54512e-07
3.54512e-07
3.54512e-07
3.55825e-07
3.55183e-07
3.59081e-07
3.54512e-07
3.54512e-07
3.54512e-07
3.54512e-07
3.54512e-07
3.54512e-07
3.50184e-07
3.54298e-07
3.58386e-07
3.59647e-07
3.54512e-07
3.54512e-07
3.54511e-07
3.54512e-07
3.54512e-07
3.54512e-07
3.4813e-07
3.54407e-07
3.57916e-07
3.59843e-07
3.54512e-07
3.54512e-07
3.54512e-07
3.54512e-07
3.54512e-07
3.54511e-07
3.48174e-07
3.54403e-07
3.58638e-07
3.54512e-07
3.54512e-07
3.54512e-07
3.54512e-07
3.54512e-07
3.54511e-07
3.4861e-07
3.51443e-07
3.5768e-07
3.55824e-07
3.54512e-07
3.54512e-07
3.54512e-07
3.54511e-07
3.44758e-07
3.51873e-07
3.55192e-07
3.58021e-07
3.55181e-07
3.50182e-07
3.48125e-07
3.48167e-07
3.48601e-07
3.51868e-07
3.51464e-07
3.54289e-07
3.54405e-07
3.54402e-07
3.51439e-07
3.55199e-07
3.53384e-07
3.52914e-07
3.54781e-07
3.54081e-07
3.54644e-07
3.54839e-07
3.53635e-07
3.52675e-07
3.53018e-07
3.54781e-07
3.57064e-07
3.49509e-07
3.49509e-07
3.49509e-07
3.49509e-07
3.50822e-07
3.50181e-07
3.54078e-07
3.49509e-07
3.49509e-07
3.49509e-07
3.49509e-07
3.49509e-07
3.49509e-07
3.45182e-07
3.49295e-07
3.53383e-07
3.54644e-07
3.49509e-07
3.49509e-07
3.49509e-07
3.49509e-07
3.49509e-07
3.49509e-07
3.43127e-07
3.49404e-07
3.52914e-07
3.5484e-07
3.49509e-07
3.49509e-07
3.49509e-07
3.49509e-07
3.49509e-07
3.49509e-07
3.43171e-07
3.49401e-07
3.53635e-07
3.49509e-07
3.49509e-07
3.49509e-07
3.49509e-07
3.49509e-07
3.49509e-07
3.43607e-07
3.4644e-07
3.52677e-07
3.50821e-07
3.49509e-07
3.49509e-07
3.49509e-07
3.49509e-07
3.39755e-07
3.4687e-07
3.50189e-07
3.53018e-07
3.50178e-07
3.45179e-07
3.43122e-07
3.43165e-07
3.43598e-07
3.46865e-07
3.46461e-07
3.49286e-07
3.49402e-07
3.49399e-07
3.46436e-07
3.50196e-07
3.48382e-07
3.47911e-07
3.49778e-07
3.49078e-07
3.49641e-07
3.49837e-07
3.48633e-07
3.47673e-07
3.48016e-07
3.49779e-07
3.52061e-07
3.44507e-07
3.44507e-07
3.44507e-07
3.44506e-07
3.4582e-07
3.45178e-07
3.49076e-07
3.44506e-07
3.44507e-07
3.44507e-07
3.44506e-07
3.44507e-07
3.44506e-07
3.40179e-07
3.44293e-07
3.48381e-07
3.49642e-07
3.44506e-07
3.44506e-07
3.44506e-07
3.44506e-07
3.44506e-07
3.44506e-07
3.38125e-07
3.44402e-07
3.47911e-07
3.49837e-07
3.44506e-07
3.44506e-07
3.44506e-07
3.44506e-07
3.44506e-07
3.44506e-07
3.38168e-07
3.44398e-07
3.48632e-07
3.44506e-07
3.44506e-07
3.44506e-07
3.44506e-07
3.44506e-07
3.44506e-07
3.38605e-07
3.41438e-07
3.47675e-07
3.45819e-07
3.44506e-07
3.44506e-07