/*--------------------------------*- C++ -*----------------------------------*\
| =========                 |                                                 |
| \\      /  F ield         | OpenFOAM: The Open Source CFD Toolbox           |
|  \\    /   O peration     | Version:  v2012                                 |
|   \\  /    A nd           | Website:  www.openfoam.com                      |
|    \\/     M anipulation  |                                                 |
\*---------------------------------------------------------------------------*/
FoamFile
{
    version     2.0;
    format      ascii;
    class       volScalarField;
    location    "0.4";
    object      p;
}
// * * * * * * * * * * * * * * * * * * * * * * * * * * * * * * * * * * * * * //

dimensions      [0 2 -2 0 0 0 0];


internalField   nonuniform List<scalar> 
189320
(
8.43463e-07
8.42859e-07
8.37223e-07
8.36933e-07
8.35886e-07
8.35245e-07
8.36751e-07
8.38142e-07
8.34604e-07
8.37206e-07
8.34603e-07
8.35599e-07
8.3497e-07
8.3484e-07
8.35234e-07
8.35205e-07
8.35893e-07
8.36921e-07
8.35583e-07
8.3465e-07
8.34255e-07
8.34174e-07
8.34444e-07
8.34997e-07
8.34663e-07
8.38579e-07
8.43353e-07
8.35823e-07
8.34964e-07
8.34255e-07
8.33908e-07
8.3384e-07
8.34048e-07
8.34573e-07
8.35384e-07
8.37469e-07
8.42812e-07
8.35245e-07
8.34843e-07
8.34179e-07
8.33845e-07
8.33776e-07
8.3397e-07
8.3446e-07
8.35431e-07
8.35669e-07
8.3676e-07
8.35246e-07
8.34456e-07
8.34057e-07
8.33974e-07
8.34223e-07
8.34778e-07
8.35192e-07
8.46157e-07
8.38156e-07
8.35223e-07
8.35017e-07
8.34592e-07
8.3447e-07
8.34782e-07
8.35327e-07
8.34572e-07
8.38069e-07
8.34623e-07
8.35922e-07
8.34701e-07
8.35417e-07
8.35451e-07
8.352e-07
8.34579e-07
8.3389e-07
8.38628e-07
8.37519e-07
8.35702e-07
8.4617e-07
8.38079e-07
8.25105e-07
8.24874e-07
8.26167e-07
8.23869e-07
8.24023e-07
8.23749e-07
8.2372e-07
8.24679e-07
8.25205e-07
8.26169e-07
8.24769e-07
8.18667e-07
8.18676e-07
8.18678e-07
8.18659e-07
8.21163e-07
8.21762e-07
8.23864e-07
8.18662e-07
8.18172e-07
8.18688e-07
8.18681e-07
8.18175e-07
8.18674e-07
8.19208e-07
8.22416e-07
8.251e-07
8.24027e-07
8.18675e-07
8.18678e-07
8.18888e-07
8.18884e-07
8.18685e-07
8.18672e-07
8.18841e-07
8.22098e-07
8.24874e-07
8.23753e-07
8.18678e-07
8.1868e-07
8.18886e-07
8.18884e-07
8.18689e-07
8.18678e-07
8.18884e-07
8.21618e-07
8.23724e-07
8.18658e-07
8.18174e-07
8.18685e-07
8.18676e-07
8.18177e-07
8.18669e-07
8.18876e-07
8.20105e-07
8.24686e-07
8.21174e-07
8.18676e-07
8.18677e-07
8.18676e-07
8.18665e-07
8.16221e-07
8.20255e-07
8.23567e-07
8.25211e-07
8.21767e-07
8.19214e-07
8.18842e-07
8.18885e-07
8.18876e-07
8.20241e-07
8.2082e-07
8.22423e-07
8.22108e-07
8.2162e-07
8.20106e-07
8.23564e-07
8.1645e-07
8.1603e-07
8.17411e-07
8.1552e-07
8.15794e-07
8.15802e-07
8.15172e-07
8.15899e-07
8.16262e-07
8.1741e-07
8.17202e-07
8.10635e-07
8.1059e-07
8.10589e-07
8.10637e-07
8.13511e-07
8.13175e-07
8.15519e-07
8.10633e-07
8.10185e-07
8.10293e-07
8.10283e-07
8.10193e-07
8.10638e-07
8.0967e-07
8.13723e-07
8.16448e-07
8.15792e-07
8.10588e-07
8.10282e-07
8.10353e-07
8.10348e-07
8.10291e-07
8.1059e-07
8.08707e-07
8.13736e-07
8.1603e-07
8.158e-07
8.10589e-07
8.10282e-07
8.10349e-07
8.10348e-07
8.10292e-07
8.10591e-07
8.08855e-07
8.12657e-07
8.15168e-07
8.10634e-07
8.10188e-07
8.10291e-07
8.10282e-07
8.10194e-07
8.10638e-07
8.08916e-07
8.11547e-07
8.159e-07
8.13513e-07
8.10638e-07
8.10591e-07
8.1059e-07
8.10638e-07
8.0637e-07
8.11049e-07
8.1436e-07
8.16263e-07
8.13177e-07
8.09672e-07
8.08712e-07
8.08856e-07
8.08919e-07
8.11048e-07
8.1164e-07
8.13717e-07
8.13736e-07
8.12658e-07
8.11551e-07
8.14355e-07
8.07676e-07
8.07244e-07
8.08651e-07
8.06895e-07
8.07223e-07
8.07273e-07
8.06516e-07
8.0715e-07
8.07486e-07
8.08653e-07
8.08707e-07
8.02133e-07
8.02115e-07
8.02114e-07
8.02132e-07
8.04758e-07
8.04401e-07
8.06892e-07
8.02133e-07
8.01968e-07
8.01972e-07
8.01969e-07
8.0197e-07
8.02134e-07
8.00913e-07
8.04956e-07
8.07677e-07
8.07223e-07
8.02117e-07
8.0197e-07
8.01969e-07
8.01968e-07
8.01971e-07
8.02116e-07
7.996e-07
8.049e-07
8.07245e-07
8.07274e-07
8.02116e-07
8.01968e-07
8.01968e-07
8.01967e-07
8.01971e-07
8.02116e-07
7.99655e-07
8.03816e-07
8.06518e-07
8.02134e-07
8.01969e-07
8.01971e-07
8.01969e-07
8.0197e-07
8.02133e-07
7.99852e-07
8.02712e-07
8.07147e-07
8.0476e-07
8.02135e-07
8.02118e-07
8.02117e-07
8.02134e-07
7.9728e-07
8.02116e-07
8.05522e-07
8.07485e-07
8.04401e-07
8.00916e-07
7.99602e-07
7.99654e-07
7.99848e-07
8.02113e-07
8.02834e-07
8.04959e-07
8.04896e-07
8.0382e-07
8.02715e-07
8.05528e-07
7.9906e-07
7.98626e-07
8.00045e-07
7.9832e-07
7.98676e-07
7.98737e-07
7.9792e-07
7.98536e-07
7.98864e-07
8.00038e-07
8.00171e-07
7.93578e-07
7.93575e-07
7.93575e-07
7.93579e-07
7.96144e-07
7.95777e-07
7.98319e-07
7.93578e-07
7.93515e-07
7.93525e-07
7.93523e-07
7.93516e-07
7.93578e-07
7.92267e-07
7.96341e-07
7.99061e-07
7.98676e-07
7.93574e-07
7.93524e-07
7.93524e-07
7.93522e-07
7.93525e-07
7.93575e-07
7.90896e-07
7.96265e-07
7.98627e-07
7.98736e-07
7.93574e-07
7.93524e-07
7.93523e-07
7.93522e-07
7.93525e-07
7.93575e-07
7.90965e-07
7.95192e-07
7.97918e-07
7.93578e-07
7.93515e-07
7.93524e-07
7.93522e-07
7.93516e-07
7.93579e-07
7.91211e-07
7.94078e-07
7.98537e-07
7.96146e-07
7.93578e-07
7.93575e-07
7.93575e-07
7.93579e-07
7.88608e-07
7.93498e-07
7.96893e-07
7.98864e-07
7.95777e-07
7.92267e-07
7.90895e-07
7.90961e-07
7.91208e-07
7.93495e-07
7.94213e-07
7.96339e-07
7.96263e-07
7.95191e-07
7.94078e-07
7.96893e-07
7.90498e-07
7.90062e-07
7.91475e-07
7.89769e-07
7.90133e-07
7.90196e-07
7.89355e-07
7.89971e-07
7.90296e-07
7.91473e-07
7.91631e-07
7.85028e-07
7.85027e-07
7.85028e-07
7.85027e-07
7.87577e-07
7.87208e-07
7.89769e-07
7.85027e-07
7.85007e-07
7.85008e-07
7.85009e-07
7.85005e-07
7.85026e-07
7.83698e-07
7.87782e-07
7.90497e-07
7.90133e-07
7.85027e-07
7.85009e-07
7.85011e-07
7.85011e-07
7.85009e-07
7.85027e-07
7.82308e-07
7.87695e-07
7.90062e-07
7.90196e-07
7.85028e-07
7.85009e-07
7.8501e-07
7.85011e-07
7.85009e-07
7.85027e-07
7.8238e-07
7.86625e-07
7.89357e-07
7.85027e-07
7.85006e-07
7.85008e-07
7.85008e-07
7.85007e-07
7.85027e-07
7.82643e-07
7.85507e-07
7.89969e-07
7.87577e-07
7.85027e-07
7.85027e-07
7.85027e-07
7.85027e-07
7.80025e-07
7.8493e-07
7.88322e-07
7.90295e-07
7.87209e-07
7.83698e-07
7.82306e-07
7.82375e-07
7.82638e-07
7.84925e-07
7.85639e-07
7.87776e-07
7.87693e-07
7.86623e-07
7.85507e-07
7.88316e-07
7.81949e-07
7.81514e-07
7.82923e-07
7.81227e-07
7.81594e-07
7.81656e-07
7.80804e-07
7.81421e-07
7.81745e-07
7.82922e-07
7.83088e-07
7.76479e-07
7.76483e-07
7.76483e-07
7.76479e-07
7.79026e-07
7.78657e-07
7.81227e-07
7.76481e-07
7.76473e-07
7.76476e-07
7.76476e-07
7.76473e-07
7.76482e-07
7.75144e-07
7.79229e-07
7.81948e-07
7.81595e-07
7.76483e-07
7.76474e-07
7.76477e-07
7.76477e-07
7.76473e-07
7.76481e-07
7.73749e-07
7.79143e-07
7.81514e-07
7.81655e-07
7.76482e-07
7.76474e-07
7.76476e-07
7.76477e-07
7.76473e-07
7.76481e-07
7.73827e-07
7.78075e-07
7.80806e-07
7.76481e-07
7.76474e-07
7.76476e-07
7.76476e-07
7.76474e-07
7.7648e-07
7.74095e-07
7.76957e-07
7.8142e-07
7.79026e-07
7.7648e-07
7.76482e-07
7.76482e-07
7.7648e-07
7.71474e-07
7.76383e-07
7.7977e-07
7.81744e-07
7.78656e-07
7.75145e-07
7.7375e-07
7.73827e-07
7.74093e-07
7.76378e-07
7.77087e-07
7.79224e-07
7.79144e-07
7.78075e-07
7.76956e-07
7.79765e-07
7.73406e-07
7.7297e-07
7.74378e-07
7.72684e-07
7.73051e-07
7.73112e-07
7.72259e-07
7.72876e-07
7.732e-07
7.74378e-07
7.74545e-07
7.67936e-07
7.67936e-07
7.67936e-07
7.67937e-07
7.70481e-07
7.70113e-07
7.72684e-07
7.67936e-07
7.67934e-07
7.67934e-07
7.67934e-07
7.67935e-07
7.67936e-07
7.66603e-07
7.70686e-07
7.73404e-07
7.73052e-07
7.67936e-07
7.67935e-07
7.67935e-07
7.67934e-07
7.67935e-07
7.67936e-07
7.65205e-07
7.706e-07
7.72969e-07
7.73112e-07
7.67936e-07
7.67934e-07
7.67935e-07
7.67935e-07
7.67935e-07
7.67937e-07
7.65283e-07
7.69531e-07
7.7226e-07
7.67936e-07
7.67934e-07
7.67935e-07
7.67935e-07
7.67934e-07
7.67936e-07
7.65554e-07
7.68412e-07
7.72875e-07
7.70481e-07
7.67936e-07
7.67936e-07
7.67936e-07
7.67937e-07
7.6293e-07
7.67837e-07
7.71223e-07
7.73198e-07
7.70111e-07
7.666e-07
7.65202e-07
7.65279e-07
7.65548e-07
7.67833e-07
7.68542e-07
7.70681e-07
7.70597e-07
7.69531e-07
7.68411e-07
7.71221e-07
7.64862e-07
7.64426e-07
7.65834e-07
7.64141e-07
7.64509e-07
7.6457e-07
7.63716e-07
7.64332e-07
7.64656e-07
7.65834e-07
7.66004e-07
7.59393e-07
7.59393e-07
7.59393e-07
7.59394e-07
7.61937e-07
7.61568e-07
7.64141e-07
7.59394e-07
7.59392e-07
7.59392e-07
7.59392e-07
7.59392e-07
7.59391e-07
7.58058e-07
7.62141e-07
7.64861e-07
7.6451e-07
7.59393e-07
7.59391e-07
7.59392e-07
7.59392e-07
7.59392e-07
7.59392e-07
7.5666e-07
7.62056e-07
7.64426e-07
7.64571e-07
7.59393e-07
7.59393e-07
7.59393e-07
7.59393e-07
7.59393e-07
7.59392e-07
7.56739e-07
7.60987e-07
7.63717e-07
7.59391e-07
7.5939e-07
7.5939e-07
7.5939e-07
7.59391e-07
7.59393e-07
7.5701e-07
7.59868e-07
7.64332e-07
7.61936e-07
7.59394e-07
7.59394e-07
7.59393e-07
7.59394e-07
7.54387e-07
7.59293e-07
7.62679e-07
7.64655e-07
7.61567e-07
7.58057e-07
7.56657e-07
7.56735e-07
7.57005e-07
7.5929e-07
7.59998e-07
7.62138e-07
7.62054e-07
7.60987e-07
7.59868e-07
7.62678e-07
7.56319e-07
7.55883e-07
7.57291e-07
7.55599e-07
7.55968e-07
7.56028e-07
7.55172e-07
7.55789e-07
7.56113e-07
7.57291e-07
7.57461e-07
7.5085e-07
7.5085e-07
7.5085e-07
7.5085e-07
7.53393e-07
7.53025e-07
7.55598e-07
7.5085e-07
7.50849e-07
7.50849e-07
7.5085e-07
7.50849e-07
7.5085e-07
7.49515e-07
7.53599e-07
7.56318e-07
7.55967e-07
7.5085e-07
7.50851e-07
7.5085e-07
7.50851e-07
7.5085e-07
7.5085e-07
7.48117e-07
7.53514e-07
7.55883e-07
7.56028e-07
7.5085e-07
7.50849e-07
7.50849e-07
7.5085e-07
7.50848e-07
7.5085e-07
7.48196e-07
7.52444e-07
7.55173e-07
7.50851e-07
7.50849e-07
7.5085e-07
7.5085e-07
7.50849e-07
7.50851e-07
7.48468e-07
7.51325e-07
7.55788e-07
7.53392e-07
7.5085e-07
7.5085e-07
7.5085e-07
7.5085e-07
7.45845e-07
7.5075e-07
7.54136e-07
7.56112e-07
7.53024e-07
7.49513e-07
7.48112e-07
7.48192e-07
7.48462e-07
7.50747e-07
7.51454e-07
7.53595e-07
7.53511e-07
7.52444e-07
7.51324e-07
7.54134e-07
7.47776e-07
7.4734e-07
7.48754e-07
7.47056e-07
7.47425e-07
7.47485e-07
7.46628e-07
7.47247e-07
7.4757e-07
7.48748e-07
7.48917e-07
7.42307e-07
7.42306e-07
7.42306e-07
7.42306e-07
7.4485e-07
7.44482e-07
7.47056e-07
7.42306e-07
7.42307e-07
7.42307e-07
7.42307e-07
7.42307e-07
7.42306e-07
7.40973e-07
7.45056e-07
7.47776e-07
7.47425e-07
7.42307e-07
7.42307e-07
7.42307e-07
7.42307e-07
7.42307e-07
7.42307e-07
7.39574e-07
7.44971e-07
7.4734e-07
7.47485e-07
7.42307e-07
7.42307e-07
7.42307e-07
7.42307e-07
7.42307e-07
7.42307e-07
7.39655e-07
7.43903e-07
7.4663e-07
7.42306e-07
7.42307e-07
7.42307e-07
7.42307e-07
7.42307e-07
7.42306e-07
7.39926e-07
7.42783e-07
7.47246e-07
7.44848e-07
7.42306e-07
7.42307e-07
7.42307e-07
7.42306e-07
7.37303e-07
7.42208e-07
7.45593e-07
7.47569e-07
7.44481e-07
7.40971e-07
7.3957e-07
7.39649e-07
7.3992e-07
7.42204e-07
7.42912e-07
7.45053e-07
7.44969e-07
7.43901e-07
7.42781e-07
7.45591e-07
7.39232e-07
7.38797e-07
7.40209e-07
7.38513e-07
7.38882e-07
7.38942e-07
7.38086e-07
7.38702e-07
7.39026e-07
7.40205e-07
7.40375e-07
7.33764e-07
7.33764e-07
7.33763e-07
7.33763e-07
7.36307e-07
7.35938e-07
7.38513e-07
7.33763e-07
7.33764e-07
7.33764e-07
7.33764e-07
7.33764e-07
7.33764e-07
7.32429e-07
7.36513e-07
7.39233e-07
7.38882e-07
7.33764e-07
7.33764e-07
7.33764e-07
7.33764e-07
7.33764e-07
7.33764e-07
7.31032e-07
7.36428e-07
7.38797e-07
7.38943e-07
7.33764e-07
7.33764e-07
7.33764e-07
7.33764e-07
7.33764e-07
7.33764e-07
7.31112e-07
7.3536e-07
7.38087e-07
7.33764e-07
7.33764e-07
7.33764e-07
7.33764e-07
7.33764e-07
7.33764e-07
7.31383e-07
7.3424e-07
7.38703e-07
7.36305e-07
7.33764e-07
7.33763e-07
7.33763e-07
7.33764e-07
7.2876e-07
7.33665e-07
7.3705e-07
7.39026e-07
7.35938e-07
7.32428e-07
7.31027e-07
7.31107e-07
7.31377e-07
7.33661e-07
7.34369e-07
7.36509e-07
7.36426e-07
7.35358e-07
7.34239e-07
7.37048e-07
7.3069e-07
7.30254e-07
7.3167e-07
7.2997e-07
7.30339e-07
7.30399e-07
7.29545e-07
7.30158e-07
7.30483e-07
7.31663e-07
7.31833e-07
7.25221e-07
7.25221e-07
7.25221e-07
7.25221e-07
7.27764e-07
7.27395e-07
7.2997e-07
7.25221e-07
7.25221e-07
7.25221e-07
7.25221e-07
7.25221e-07
7.25221e-07
7.23887e-07
7.2797e-07
7.3069e-07
7.30339e-07
7.25221e-07
7.25221e-07
7.25221e-07
7.25221e-07
7.25221e-07
7.25221e-07
7.22489e-07
7.27886e-07
7.30255e-07
7.304e-07
7.25221e-07
7.25221e-07
7.25221e-07
7.25221e-07
7.25221e-07
7.25221e-07
7.22569e-07
7.26817e-07
7.29544e-07
7.25221e-07
7.25221e-07
7.25221e-07
7.25221e-07
7.25221e-07
7.25221e-07
7.2284e-07
7.25697e-07
7.3016e-07
7.27763e-07
7.25221e-07
7.25221e-07
7.25221e-07
7.25221e-07
7.20217e-07
7.25122e-07
7.28507e-07
7.30483e-07
7.27395e-07
7.23885e-07
7.22484e-07
7.22563e-07
7.22834e-07
7.25118e-07
7.25826e-07
7.27967e-07
7.27883e-07
7.26815e-07
7.25696e-07
7.28505e-07
7.22147e-07
7.21712e-07
7.23124e-07
7.21428e-07
7.21796e-07
7.21856e-07
7.21003e-07
7.21616e-07
7.21941e-07
7.2312e-07
7.2329e-07
7.16678e-07
7.16678e-07
7.16679e-07
7.16679e-07
7.19222e-07
7.18853e-07
7.21427e-07
7.16678e-07
7.16678e-07
7.16678e-07
7.16678e-07
7.16678e-07
7.16678e-07
7.15344e-07
7.19428e-07
7.22147e-07
7.21797e-07
7.16678e-07
7.16678e-07
7.16678e-07
7.16678e-07
7.16678e-07
7.16678e-07
7.13947e-07
7.19343e-07
7.21712e-07
7.21857e-07
7.16678e-07
7.16678e-07
7.16678e-07
7.16678e-07
7.16678e-07
7.16678e-07
7.14027e-07
7.18274e-07
7.21002e-07
7.16678e-07
7.16678e-07
7.16678e-07
7.16678e-07
7.16678e-07
7.16678e-07
7.14297e-07
7.17154e-07
7.21617e-07
7.1922e-07
7.16678e-07
7.16678e-07
7.16678e-07
7.16678e-07
7.11674e-07
7.1658e-07
7.19964e-07
7.21941e-07
7.18852e-07
7.15343e-07
7.13941e-07
7.14021e-07
7.14291e-07
7.16576e-07
7.17284e-07
7.19424e-07
7.19341e-07
7.18273e-07
7.17153e-07
7.19963e-07
7.13605e-07
7.1317e-07
7.14582e-07
7.12885e-07
7.13254e-07
7.13314e-07
7.1246e-07
7.13075e-07
7.134e-07
7.14578e-07
7.14748e-07
7.08136e-07
7.08136e-07
7.08136e-07
7.08136e-07
7.1068e-07
7.10311e-07
7.12885e-07
7.08136e-07
7.08136e-07
7.08136e-07
7.08136e-07
7.08136e-07
7.08136e-07
7.06802e-07
7.10886e-07
7.13605e-07
7.13254e-07
7.08136e-07
7.08136e-07
7.08136e-07
7.08136e-07
7.08136e-07
7.08136e-07
7.05404e-07
7.10801e-07
7.1317e-07
7.13315e-07
7.08136e-07
7.08136e-07
7.08136e-07
7.08136e-07
7.08136e-07
7.08136e-07
7.05484e-07
7.09732e-07
7.12459e-07
7.08136e-07
7.08136e-07
7.08136e-07
7.08136e-07
7.08136e-07
7.08136e-07
7.05755e-07
7.08612e-07
7.13075e-07
7.10678e-07
7.08136e-07
7.08136e-07
7.08136e-07
7.08136e-07
7.03132e-07
7.08037e-07
7.11422e-07
7.13398e-07
7.1031e-07
7.068e-07
7.05399e-07
7.05478e-07
7.05749e-07
7.08033e-07
7.08741e-07
7.10882e-07
7.10798e-07
7.0973e-07
7.08611e-07
7.1142e-07
7.05061e-07
7.04626e-07
7.06038e-07
7.04342e-07
7.04711e-07
7.04771e-07
7.03916e-07
7.04531e-07
7.04855e-07
7.06034e-07
7.06204e-07
6.99592e-07
6.99593e-07
6.99593e-07
6.99593e-07
7.02136e-07
7.01767e-07
7.04342e-07
6.99592e-07
6.99593e-07
6.99593e-07
6.99593e-07
6.99593e-07
6.99593e-07
6.98259e-07
7.02342e-07
7.05061e-07
7.04711e-07
6.99592e-07
6.99593e-07
6.99593e-07
6.99593e-07
6.99593e-07
6.99593e-07
6.96861e-07
7.02257e-07
7.04626e-07
7.04771e-07
6.99593e-07
6.99593e-07
6.99593e-07
6.99593e-07
6.99593e-07
6.99593e-07
6.96941e-07
7.01189e-07
7.03916e-07
6.99592e-07
6.99593e-07
6.99593e-07
6.99593e-07
6.99593e-07
6.99593e-07
6.97212e-07
7.00068e-07
7.04532e-07
7.02134e-07
6.99593e-07
6.99593e-07
6.99593e-07
6.99593e-07
6.94589e-07
6.99494e-07
7.02879e-07
7.04855e-07
7.01766e-07
6.98257e-07
6.96855e-07
6.96934e-07
6.97205e-07
6.9949e-07
7.00198e-07
7.02338e-07
7.02254e-07
7.01187e-07
7.00067e-07
7.02877e-07
6.96518e-07
6.96083e-07
6.97495e-07
6.95799e-07
6.96167e-07
6.96227e-07
6.95373e-07
6.95989e-07
6.96312e-07
6.97491e-07
6.97661e-07
6.9105e-07
6.9105e-07
6.9105e-07
6.9105e-07
6.93593e-07
6.93224e-07
6.95798e-07
6.9105e-07
6.9105e-07
6.9105e-07
6.9105e-07
6.9105e-07
6.91049e-07
6.89715e-07
6.93799e-07
6.96518e-07
6.96168e-07
6.9105e-07
6.9105e-07
6.9105e-07
6.9105e-07
6.9105e-07
6.91049e-07
6.88318e-07
6.93714e-07
6.96083e-07
6.96228e-07
6.9105e-07
6.9105e-07
6.9105e-07
6.9105e-07
6.9105e-07
6.9105e-07
6.88398e-07
6.92645e-07
6.95373e-07
6.91049e-07
6.9105e-07
6.9105e-07
6.9105e-07
6.9105e-07
6.91049e-07
6.88668e-07
6.91525e-07
6.95988e-07
6.93591e-07
6.9105e-07
6.9105e-07
6.9105e-07
6.9105e-07
6.86046e-07
6.90951e-07
6.94335e-07
6.96312e-07
6.93223e-07
6.89714e-07
6.88313e-07
6.88392e-07
6.88663e-07
6.90947e-07
6.91655e-07
6.93795e-07
6.93712e-07
6.92644e-07
6.91524e-07
6.94334e-07
6.87975e-07
6.8754e-07
6.88952e-07
6.87256e-07
6.87625e-07
6.87685e-07
6.8683e-07
6.87446e-07
6.87769e-07
6.88948e-07
6.89118e-07
6.82507e-07
6.82507e-07
6.82507e-07
6.82507e-07
6.8505e-07
6.84682e-07
6.87256e-07
6.82507e-07
6.82507e-07
6.82507e-07
6.82507e-07
6.82507e-07
6.82507e-07
6.81172e-07
6.85257e-07
6.87976e-07
6.87625e-07
6.82507e-07
6.82507e-07
6.82507e-07
6.82507e-07
6.82507e-07
6.82507e-07
6.79775e-07
6.85172e-07
6.8754e-07
6.87686e-07
6.82507e-07
6.82507e-07
6.82507e-07
6.82507e-07
6.82507e-07
6.82507e-07
6.79855e-07
6.84103e-07
6.8683e-07
6.82507e-07
6.82507e-07
6.82507e-07
6.82507e-07
6.82507e-07
6.82507e-07
6.80126e-07
6.82983e-07
6.87446e-07
6.85049e-07
6.82507e-07
6.82507e-07
6.82507e-07
6.82507e-07
6.77503e-07
6.82408e-07
6.85793e-07
6.87769e-07
6.84681e-07
6.81171e-07
6.79771e-07
6.79851e-07
6.8012e-07
6.82405e-07
6.83112e-07
6.85253e-07
6.85169e-07
6.84102e-07
6.82982e-07
6.85791e-07
6.79433e-07
6.78998e-07
6.8041e-07
6.78714e-07
6.79082e-07
6.79143e-07
6.78289e-07
6.78902e-07
6.79223e-07
6.80406e-07
6.80575e-07
6.73964e-07
6.73964e-07
6.73964e-07
6.73964e-07
6.76507e-07
6.76139e-07
6.78713e-07
6.73964e-07
6.73964e-07
6.73964e-07
6.73964e-07
6.73964e-07
6.73964e-07
6.72629e-07
6.76714e-07
6.79433e-07
6.79083e-07
6.73964e-07
6.73964e-07
6.73964e-07
6.73964e-07
6.73964e-07
6.73964e-07
6.71233e-07
6.76629e-07
6.78998e-07
6.79143e-07
6.73964e-07
6.73964e-07
6.73964e-07
6.73964e-07
6.73964e-07
6.73964e-07
6.71313e-07
6.7556e-07
6.78288e-07
6.73964e-07
6.73964e-07
6.73964e-07
6.73964e-07
6.73964e-07
6.73964e-07
6.71583e-07
6.7444e-07
6.78903e-07
6.76506e-07
6.73964e-07
6.73964e-07
6.73964e-07
6.73964e-07
6.6896e-07
6.73866e-07
6.7725e-07
6.79227e-07
6.76138e-07
6.72628e-07
6.71227e-07
6.71307e-07
6.71577e-07
6.73862e-07
6.7457e-07
6.76709e-07
6.76626e-07
6.75558e-07
6.74438e-07
6.77249e-07
6.7089e-07
6.70455e-07
6.71867e-07
6.70171e-07
6.7054e-07
6.706e-07
6.69746e-07
6.7036e-07
6.70681e-07
6.71863e-07
6.72032e-07
6.65421e-07
6.65421e-07
6.65421e-07
6.65421e-07
6.67964e-07
6.67596e-07
6.7017e-07
6.65421e-07
6.65421e-07
6.65421e-07
6.65421e-07
6.65421e-07
6.65421e-07
6.64086e-07
6.68171e-07
6.7089e-07
6.7054e-07
6.65421e-07
6.65421e-07
6.65421e-07
6.65421e-07
6.65421e-07
6.65421e-07
6.6269e-07
6.68086e-07
6.70455e-07
6.706e-07
6.65421e-07
6.65421e-07
6.65421e-07
6.65421e-07
6.65421e-07
6.65421e-07
6.6277e-07
6.67017e-07
6.69745e-07
6.65421e-07
6.65421e-07
6.65421e-07
6.65421e-07
6.65421e-07
6.65421e-07
6.6304e-07
6.65897e-07
6.7036e-07
6.67963e-07
6.65421e-07
6.65421e-07
6.65421e-07
6.65421e-07
6.60417e-07
6.65322e-07
6.68707e-07
6.70684e-07
6.67595e-07
6.64086e-07
6.62686e-07
6.62766e-07
6.63035e-07
6.65319e-07
6.66027e-07
6.68167e-07
6.68084e-07
6.67016e-07
6.65895e-07
6.68706e-07
6.62347e-07
6.61912e-07
6.63324e-07
6.61627e-07
6.61996e-07
6.62056e-07
6.61202e-07
6.61816e-07
6.62138e-07
6.6332e-07
6.63489e-07
6.56878e-07
6.56878e-07
6.56878e-07
6.56878e-07
6.59422e-07
6.59053e-07
6.61627e-07
6.56878e-07
6.56878e-07
6.56878e-07
6.56878e-07
6.56878e-07
6.56878e-07
6.55543e-07
6.59628e-07
6.62347e-07
6.61996e-07
6.56878e-07
6.56878e-07
6.56878e-07
6.56878e-07
6.56878e-07
6.56878e-07
6.54146e-07
6.59543e-07
6.61912e-07
6.62057e-07
6.56878e-07
6.56878e-07
6.56878e-07
6.56878e-07
6.56878e-07
6.56878e-07
6.54226e-07
6.58474e-07
6.61201e-07
6.56878e-07
6.56878e-07
6.56878e-07
6.56878e-07
6.56878e-07
6.56878e-07
6.54497e-07
6.57354e-07
6.61817e-07
6.5942e-07
6.56878e-07
6.56878e-07
6.56878e-07
6.56878e-07
6.51874e-07
6.56779e-07
6.60164e-07
6.6214e-07
6.59052e-07
6.55543e-07
6.54143e-07
6.54222e-07
6.54491e-07
6.56776e-07
6.57483e-07
6.59624e-07
6.59541e-07
6.58473e-07
6.57352e-07
6.60163e-07
6.53803e-07
6.53368e-07
6.5478e-07
6.53084e-07
6.53453e-07
6.53513e-07
6.52658e-07
6.53272e-07
6.53594e-07
6.54777e-07
6.54946e-07
6.48335e-07
6.48335e-07
6.48335e-07
6.48335e-07
6.50878e-07
6.50509e-07
6.53084e-07
6.48335e-07
6.48335e-07
6.48335e-07
6.48335e-07
6.48335e-07
6.48335e-07
6.47e-07
6.51084e-07
6.53804e-07
6.53453e-07
6.48335e-07
6.48335e-07
6.48335e-07
6.48335e-07
6.48335e-07
6.48335e-07
6.45603e-07
6.50999e-07
6.53368e-07
6.53514e-07
6.48335e-07
6.48335e-07
6.48335e-07
6.48335e-07
6.48335e-07
6.48335e-07
6.45683e-07
6.49931e-07
6.52658e-07
6.48335e-07
6.48335e-07
6.48335e-07
6.48335e-07
6.48335e-07
6.48335e-07
6.45954e-07
6.4881e-07
6.53274e-07
6.50877e-07
6.48335e-07
6.48335e-07
6.48335e-07
6.48335e-07
6.43331e-07
6.48236e-07
6.5162e-07
6.53597e-07
6.50509e-07
6.46999e-07
6.45599e-07
6.45678e-07
6.45948e-07
6.48232e-07
6.4894e-07
6.5108e-07
6.50997e-07
6.49929e-07
6.48808e-07
6.51618e-07
6.45261e-07
6.44826e-07
6.46238e-07
6.44541e-07
6.4491e-07
6.44971e-07
6.44116e-07
6.4473e-07
6.45052e-07
6.46234e-07
6.46403e-07
6.39793e-07
6.39793e-07
6.39793e-07
6.39793e-07
6.42336e-07
6.41967e-07
6.44542e-07
6.39793e-07
6.39793e-07
6.39793e-07
6.39793e-07
6.39793e-07
6.39793e-07
6.38458e-07
6.42542e-07
6.45261e-07
6.44911e-07
6.39793e-07
6.39793e-07
6.39793e-07
6.39793e-07
6.39793e-07
6.39793e-07
6.37061e-07
6.42457e-07
6.44826e-07
6.44972e-07
6.39793e-07
6.39793e-07
6.39793e-07
6.39793e-07
6.39793e-07
6.39793e-07
6.37141e-07
6.41389e-07
6.44116e-07
6.39793e-07
6.39793e-07
6.39793e-07
6.39793e-07
6.39793e-07
6.39793e-07
6.37411e-07
6.40268e-07
6.44731e-07
6.42334e-07
6.39793e-07
6.39793e-07
6.39793e-07
6.39793e-07
6.34789e-07
6.39694e-07
6.43078e-07
6.45055e-07
6.41966e-07
6.38457e-07
6.37057e-07
6.37136e-07
6.37406e-07
6.3969e-07
6.40398e-07
6.42538e-07
6.42455e-07
6.41387e-07
6.40266e-07
6.43076e-07
6.36719e-07
6.36284e-07
6.37695e-07
6.35999e-07
6.36368e-07
6.36428e-07
6.35574e-07
6.36187e-07
6.3651e-07
6.37692e-07
6.37861e-07
6.3125e-07
6.3125e-07
6.3125e-07
6.3125e-07
6.33794e-07
6.33425e-07
6.35999e-07
6.3125e-07
6.3125e-07
6.3125e-07
6.3125e-07
6.3125e-07
6.3125e-07
6.29915e-07
6.34001e-07
6.36719e-07
6.36368e-07
6.3125e-07
6.3125e-07
6.3125e-07
6.3125e-07
6.3125e-07
6.3125e-07
6.28518e-07
6.33915e-07
6.36284e-07
6.36429e-07
6.3125e-07
6.3125e-07
6.3125e-07
6.3125e-07
6.3125e-07
6.3125e-07
6.28598e-07
6.32846e-07
6.35573e-07
6.3125e-07
6.3125e-07
6.3125e-07
6.3125e-07
6.3125e-07
6.3125e-07
6.28869e-07
6.31726e-07
6.36189e-07
6.33792e-07
6.3125e-07
6.3125e-07
6.3125e-07
6.3125e-07
6.26246e-07
6.31151e-07
6.34536e-07
6.36512e-07
6.33424e-07
6.29915e-07
6.28515e-07
6.28594e-07
6.28863e-07
6.31148e-07
6.31855e-07
6.33996e-07
6.33913e-07
6.32845e-07
6.31724e-07
6.34534e-07
6.28176e-07
6.27741e-07
6.29152e-07
6.27456e-07
6.27825e-07
6.27885e-07
6.27031e-07
6.27645e-07
6.27966e-07
6.29148e-07
6.29318e-07
6.22707e-07
6.22707e-07
6.22707e-07
6.22707e-07
6.25251e-07
6.24881e-07
6.27456e-07
6.22707e-07
6.22707e-07
6.22707e-07
6.22707e-07
6.22707e-07
6.22707e-07
6.21372e-07
6.25457e-07
6.28176e-07
6.27825e-07
6.22707e-07
6.22707e-07
6.22707e-07
6.22707e-07
6.22707e-07
6.22707e-07
6.19975e-07
6.25372e-07
6.27741e-07
6.27886e-07
6.22707e-07
6.22707e-07
6.22707e-07
6.22707e-07
6.22707e-07
6.22707e-07
6.20055e-07
6.24303e-07
6.2703e-07
6.22707e-07
6.22707e-07
6.22707e-07
6.22707e-07
6.22707e-07
6.22707e-07
6.20326e-07
6.23183e-07
6.27646e-07
6.25249e-07
6.22707e-07
6.22707e-07
6.22707e-07
6.22707e-07
6.17703e-07
6.22608e-07
6.25993e-07
6.27969e-07
6.24881e-07
6.21372e-07
6.19972e-07
6.20051e-07
6.2032e-07
6.22604e-07
6.23312e-07
6.25453e-07
6.25369e-07
6.24301e-07
6.2318e-07
6.25991e-07
6.19633e-07
6.19198e-07
6.2061e-07
6.18913e-07
6.19282e-07
6.19343e-07
6.18488e-07
6.19102e-07
6.19424e-07
6.20606e-07
6.20776e-07
6.14164e-07
6.14165e-07
6.14165e-07
6.14164e-07
6.16708e-07
6.16339e-07
6.18913e-07
6.14164e-07
6.14165e-07
6.14165e-07
6.14165e-07
6.14165e-07
6.14164e-07
6.1283e-07
6.16915e-07
6.19633e-07
6.19283e-07
6.14164e-07
6.14164e-07
6.14164e-07
6.14164e-07
6.14164e-07
6.14164e-07
6.11433e-07
6.16829e-07
6.19198e-07
6.19343e-07
6.14164e-07
6.14164e-07
6.14164e-07
6.14164e-07
6.14164e-07
6.14164e-07
6.11513e-07
6.1576e-07
6.18488e-07
6.14164e-07
6.14165e-07
6.14164e-07
6.14164e-07
6.14165e-07
6.14164e-07
6.11783e-07
6.1464e-07
6.19103e-07
6.16706e-07
6.14164e-07
6.14164e-07
6.14164e-07
6.14164e-07
6.0916e-07
6.14066e-07
6.1745e-07
6.19427e-07
6.16338e-07
6.12829e-07
6.11429e-07
6.11508e-07
6.11777e-07
6.14062e-07
6.1477e-07
6.1691e-07
6.16827e-07
6.15759e-07
6.14638e-07
6.17448e-07
6.1109e-07
6.10655e-07
6.1207e-07
6.10369e-07
6.10739e-07
6.10799e-07
6.09943e-07
6.1056e-07
6.10885e-07
6.12064e-07
6.12233e-07
6.05622e-07
6.05622e-07
6.05622e-07
6.05622e-07
6.08166e-07
6.07797e-07
6.10371e-07
6.05622e-07
6.05622e-07
6.05622e-07
6.05622e-07
6.05622e-07
6.05622e-07
6.04287e-07
6.08372e-07
6.11091e-07
6.1074e-07
6.05622e-07
6.05622e-07
6.05622e-07
6.05622e-07
6.05622e-07
6.05622e-07
6.0289e-07
6.08286e-07
6.10656e-07
6.10801e-07
6.05622e-07
6.05622e-07
6.05622e-07
6.05622e-07
6.05622e-07
6.05622e-07
6.0297e-07
6.07218e-07
6.09945e-07
6.05622e-07
6.05622e-07
6.05622e-07
6.05622e-07
6.05622e-07
6.05622e-07
6.03241e-07
6.06098e-07
6.10561e-07
6.08163e-07
6.05621e-07
6.05622e-07
6.05621e-07
6.05622e-07
6.00618e-07
6.05523e-07
6.08908e-07
6.10884e-07
6.07796e-07
6.04286e-07
6.02886e-07
6.02965e-07
6.03235e-07
6.05519e-07
6.06227e-07
6.08367e-07
6.08284e-07
6.07216e-07
6.06095e-07
6.08905e-07
6.02547e-07
6.02112e-07
6.03527e-07
6.01826e-07
6.02196e-07
6.02256e-07
6.014e-07
6.02017e-07
6.02341e-07
6.03521e-07
6.0369e-07
5.97078e-07
5.97078e-07
5.97078e-07
5.97078e-07
5.99623e-07
5.99253e-07
6.01828e-07
5.97078e-07
5.97079e-07
5.97079e-07
5.97079e-07
5.97079e-07
5.97078e-07
5.95744e-07
5.99829e-07
6.02547e-07
6.02197e-07
5.97079e-07
5.97079e-07
5.97079e-07
5.97079e-07
5.97078e-07
5.97078e-07
5.94347e-07
5.99743e-07
6.02112e-07
6.02257e-07
5.97079e-07
5.97079e-07
5.97079e-07
5.97079e-07
5.97078e-07
5.97078e-07
5.94427e-07
5.98674e-07
6.01402e-07
5.97078e-07
5.97079e-07
5.97079e-07
5.97079e-07
5.97079e-07
5.97078e-07
5.94697e-07
5.97554e-07
6.02017e-07
5.9962e-07
5.97078e-07
5.97078e-07
5.97078e-07
5.97078e-07
5.92074e-07
5.96979e-07
6.00364e-07
6.02341e-07
5.99252e-07
5.95742e-07
5.94342e-07
5.94421e-07
5.94691e-07
5.96976e-07
5.97684e-07
5.99824e-07
5.99741e-07
5.98673e-07
5.97552e-07
6.00362e-07
5.94003e-07
5.93568e-07
5.94984e-07
5.93283e-07
5.93653e-07
5.93713e-07
5.92857e-07
5.93475e-07
5.938e-07
5.94978e-07
5.95148e-07
5.88536e-07
5.88536e-07
5.88536e-07
5.88536e-07
5.91078e-07
5.9071e-07
5.93285e-07
5.88536e-07
5.88536e-07
5.88536e-07
5.88536e-07
5.88536e-07
5.88536e-07
5.87201e-07
5.91286e-07
5.94005e-07
5.93654e-07
5.88536e-07
5.88536e-07
5.88536e-07
5.88536e-07
5.88536e-07
5.88536e-07
5.85804e-07
5.912e-07
5.93569e-07
5.93714e-07
5.88536e-07
5.88536e-07
5.88536e-07
5.88536e-07
5.88536e-07
5.88536e-07
5.85884e-07
5.90132e-07
5.92859e-07
5.88536e-07
5.88536e-07
5.88536e-07
5.88536e-07
5.88536e-07
5.88536e-07
5.86155e-07
5.89011e-07
5.93475e-07
5.91078e-07
5.88536e-07
5.88536e-07
5.88536e-07
5.88536e-07
5.83532e-07
5.88437e-07
5.91822e-07
5.93798e-07
5.9071e-07
5.87199e-07
5.858e-07
5.85878e-07
5.86149e-07
5.88433e-07
5.89141e-07
5.91281e-07
5.91198e-07
5.9013e-07
5.89009e-07
5.91819e-07
5.85462e-07
5.85027e-07
5.86439e-07
5.84743e-07
5.85112e-07
5.85172e-07
5.84316e-07
5.8493e-07
5.85255e-07
5.86435e-07
5.86605e-07
5.79994e-07
5.79994e-07
5.79993e-07
5.79993e-07
5.82536e-07
5.82168e-07
5.84743e-07
5.79993e-07
5.79994e-07
5.79993e-07
5.79993e-07
5.79993e-07
5.79993e-07
5.78658e-07
5.82744e-07
5.85463e-07
5.85112e-07
5.79993e-07
5.79993e-07
5.79993e-07
5.79993e-07
5.79993e-07
5.79993e-07
5.77262e-07
5.82658e-07
5.85027e-07
5.85172e-07
5.79993e-07
5.79993e-07
5.79993e-07
5.79993e-07
5.79993e-07
5.79993e-07
5.77342e-07
5.81589e-07
5.84317e-07
5.79993e-07
5.79993e-07
5.79993e-07
5.79993e-07
5.79993e-07
5.79993e-07
5.77612e-07
5.80469e-07
5.84932e-07
5.82535e-07
5.79993e-07
5.79993e-07
5.79993e-07
5.79993e-07
5.74989e-07
5.79894e-07
5.83279e-07
5.85256e-07
5.82167e-07
5.78657e-07
5.77259e-07
5.77337e-07
5.77606e-07
5.79891e-07
5.80598e-07
5.82739e-07
5.82656e-07
5.81589e-07
5.80467e-07
5.83277e-07
5.76919e-07
5.76484e-07
5.77896e-07
5.76199e-07
5.76567e-07
5.76628e-07
5.75772e-07
5.76388e-07
5.76713e-07
5.77892e-07
5.78061e-07
5.7145e-07
5.7145e-07
5.7145e-07
5.7145e-07
5.73993e-07
5.73625e-07
5.76199e-07
5.7145e-07
5.7145e-07
5.7145e-07
5.7145e-07
5.7145e-07
5.7145e-07
5.70115e-07
5.74201e-07
5.76919e-07
5.76569e-07
5.7145e-07
5.7145e-07
5.7145e-07
5.7145e-07
5.7145e-07
5.7145e-07
5.68718e-07
5.74115e-07
5.76484e-07
5.76629e-07
5.7145e-07
5.7145e-07
5.7145e-07
5.7145e-07
5.7145e-07
5.7145e-07
5.68798e-07
5.73046e-07
5.75773e-07
5.7145e-07
5.7145e-07
5.7145e-07
5.7145e-07
5.7145e-07
5.7145e-07
5.69069e-07
5.71926e-07
5.76389e-07
5.73992e-07
5.7145e-07
5.7145e-07
5.7145e-07
5.7145e-07
5.66446e-07
5.71351e-07
5.74736e-07
5.76712e-07
5.73624e-07
5.70114e-07
5.68715e-07
5.68794e-07
5.69063e-07
5.71348e-07
5.72055e-07
5.74196e-07
5.74113e-07
5.73045e-07
5.71924e-07
5.74734e-07
5.68375e-07
5.6794e-07
5.69352e-07
5.67655e-07
5.68024e-07
5.68084e-07
5.67229e-07
5.67845e-07
5.68169e-07
5.69349e-07
5.69518e-07
5.62907e-07
5.62907e-07
5.62907e-07
5.62907e-07
5.6545e-07
5.65082e-07
5.67656e-07
5.62907e-07
5.62907e-07
5.62907e-07
5.62907e-07
5.62907e-07
5.62907e-07
5.61572e-07
5.65658e-07
5.68376e-07
5.68025e-07
5.62907e-07
5.62907e-07
5.62907e-07
5.62907e-07
5.62907e-07
5.62907e-07
5.60175e-07
5.65572e-07
5.67941e-07
5.68085e-07
5.62907e-07
5.62907e-07
5.62907e-07
5.62907e-07
5.62907e-07
5.62907e-07
5.60255e-07
5.64503e-07
5.6723e-07
5.62907e-07
5.62907e-07
5.62907e-07
5.62907e-07
5.62907e-07
5.62907e-07
5.60526e-07
5.63383e-07
5.67846e-07
5.65449e-07
5.62907e-07
5.62907e-07
5.62907e-07
5.62907e-07
5.57903e-07
5.62808e-07
5.66193e-07
5.68169e-07
5.65081e-07