/*--------------------------------*- C++ -*----------------------------------*\
| =========                 |                                                 |
| \\      /  F ield         | OpenFOAM: The Open Source CFD Toolbox           |
|  \\    /   O peration     | Version:  v2012                                 |
|   \\  /    A nd           | Website:  www.openfoam.com                      |
|    \\/     M anipulation  |                                                 |
\*---------------------------------------------------------------------------*/
FoamFile
{
    version     2.0;
    format      ascii;
    class       volScalarField;
    location    "50.5";
    object      p;
}
// * * * * * * * * * * * * * * * * * * * * * * * * * * * * * * * * * * * * * //

dimensions      [0 2 -2 0 0 0 0];


internalField   nonuniform List<scalar> 
189320
(
1.05888e-06
1.05847e-06
1.05773e-06
1.05821e-06
1.05847e-06
1.05852e-06
1.05833e-06
1.05867e-06
1.05848e-06
1.05772e-06
1.05849e-06
1.05866e-06
1.05864e-06
1.05864e-06
1.05864e-06
1.05857e-06
1.05803e-06
1.05821e-06
1.05866e-06
1.05862e-06
1.05853e-06
1.0585e-06
1.05856e-06
1.05864e-06
1.05855e-06
1.05898e-06
1.05888e-06
1.05847e-06
1.05864e-06
1.05853e-06
1.0584e-06
1.05838e-06
1.05845e-06
1.05858e-06
1.05858e-06
1.05881e-06
1.05847e-06
1.05852e-06
1.05864e-06
1.0585e-06
1.05838e-06
1.05835e-06
1.05843e-06
1.05857e-06
1.05862e-06
1.0581e-06
1.05833e-06
1.05864e-06
1.05856e-06
1.05845e-06
1.05843e-06
1.0585e-06
1.05861e-06
1.05858e-06
1.05892e-06
1.05867e-06
1.05857e-06
1.05864e-06
1.05858e-06
1.05857e-06
1.05861e-06
1.05865e-06
1.05844e-06
1.05876e-06
1.05848e-06
1.05802e-06
1.05855e-06
1.05858e-06
1.05862e-06
1.05858e-06
1.05844e-06
1.05845e-06
1.05898e-06
1.0588e-06
1.05809e-06
1.05892e-06
1.05876e-06
1.04604e-06
1.04598e-06
1.04586e-06
1.04495e-06
1.04496e-06
1.04496e-06
1.04496e-06
1.04588e-06
1.04593e-06
1.04586e-06
1.04467e-06
1.04329e-06
1.0434e-06
1.0434e-06
1.04329e-06
1.04487e-06
1.0451e-06
1.04495e-06
1.04329e-06
1.0436e-06
1.04371e-06
1.04371e-06
1.0436e-06
1.04329e-06
1.04528e-06
1.04606e-06
1.04604e-06
1.04496e-06
1.0434e-06
1.04371e-06
1.04379e-06
1.0438e-06
1.04371e-06
1.0434e-06
1.04541e-06
1.04597e-06
1.04598e-06
1.04496e-06
1.0434e-06
1.04371e-06
1.0438e-06
1.04379e-06
1.04371e-06
1.0434e-06
1.04542e-06
1.04522e-06
1.04496e-06
1.04329e-06
1.0436e-06
1.04371e-06
1.04371e-06
1.0436e-06
1.04329e-06
1.04536e-06
1.0461e-06
1.04588e-06
1.04487e-06
1.04329e-06
1.0434e-06
1.0434e-06
1.04329e-06
1.04519e-06
1.04523e-06
1.04606e-06
1.04593e-06
1.0451e-06
1.04528e-06
1.04541e-06
1.04542e-06
1.04536e-06
1.04523e-06
1.04596e-06
1.04606e-06
1.04597e-06
1.04522e-06
1.0461e-06
1.04606e-06
1.03507e-06
1.035e-06
1.03488e-06
1.03386e-06
1.03382e-06
1.0338e-06
1.03385e-06
1.03488e-06
1.03496e-06
1.03488e-06
1.03352e-06
1.03188e-06
1.03194e-06
1.03194e-06
1.03188e-06
1.03364e-06
1.03403e-06
1.03386e-06
1.03188e-06
1.03205e-06
1.03212e-06
1.03212e-06
1.03205e-06
1.03188e-06
1.03407e-06
1.03508e-06
1.03507e-06
1.03382e-06
1.03194e-06
1.03212e-06
1.03219e-06
1.03219e-06
1.03212e-06
1.03194e-06
1.03411e-06
1.03495e-06
1.035e-06
1.0338e-06
1.03194e-06
1.03212e-06
1.03219e-06
1.03219e-06
1.03212e-06
1.03194e-06
1.03411e-06
1.03415e-06
1.03385e-06
1.03188e-06
1.03205e-06
1.03212e-06
1.03212e-06
1.03205e-06
1.03188e-06
1.03411e-06
1.0351e-06
1.03488e-06
1.03364e-06
1.03188e-06
1.03194e-06
1.03194e-06
1.03188e-06
1.03386e-06
1.03409e-06
1.0351e-06
1.03496e-06
1.03403e-06
1.03407e-06
1.03411e-06
1.03411e-06
1.03411e-06
1.03409e-06
1.03497e-06
1.03508e-06
1.03495e-06
1.03415e-06
1.0351e-06
1.0351e-06
1.02393e-06
1.02385e-06
1.02374e-06
1.0227e-06
1.02264e-06
1.02261e-06
1.02268e-06
1.02374e-06
1.02382e-06
1.02374e-06
1.02234e-06
1.02063e-06
1.02065e-06
1.02065e-06
1.02063e-06
1.02245e-06
1.02288e-06
1.0227e-06
1.02063e-06
1.02071e-06
1.02075e-06
1.02075e-06
1.02071e-06
1.02063e-06
1.02288e-06
1.02394e-06
1.02393e-06
1.02264e-06
1.02065e-06
1.02075e-06
1.0208e-06
1.0208e-06
1.02075e-06
1.02065e-06
1.02289e-06
1.0238e-06
1.02385e-06
1.02261e-06
1.02065e-06
1.02075e-06
1.0208e-06
1.0208e-06
1.02075e-06
1.02065e-06
1.02288e-06
1.02299e-06
1.02268e-06
1.02063e-06
1.02071e-06
1.02075e-06
1.02075e-06
1.02071e-06
1.02063e-06
1.0229e-06
1.02396e-06
1.02374e-06
1.02245e-06
1.02063e-06
1.02065e-06
1.02065e-06
1.02063e-06
1.02264e-06
1.02292e-06
1.02396e-06
1.02382e-06
1.02288e-06
1.02288e-06
1.02289e-06
1.02288e-06
1.0229e-06
1.02292e-06
1.02383e-06
1.02394e-06
1.0238e-06
1.02299e-06
1.02396e-06
1.02396e-06
1.01276e-06
1.01269e-06
1.01257e-06
1.01152e-06
1.01146e-06
1.01143e-06
1.0115e-06
1.01257e-06
1.01266e-06
1.01257e-06
1.01116e-06
1.00942e-06
1.00943e-06
1.00943e-06
1.00942e-06
1.01127e-06
1.01171e-06
1.01152e-06
1.00942e-06
1.00946e-06
1.00948e-06
1.00948e-06
1.00946e-06
1.00942e-06
1.0117e-06
1.01278e-06
1.01276e-06
1.01146e-06
1.00943e-06
1.00948e-06
1.00951e-06
1.00951e-06
1.00948e-06
1.00943e-06
1.0117e-06
1.01263e-06
1.01269e-06
1.01143e-06
1.00943e-06
1.00948e-06
1.00951e-06
1.00951e-06
1.00948e-06
1.00943e-06
1.01169e-06
1.01182e-06
1.0115e-06
1.00942e-06
1.00946e-06
1.00948e-06
1.00948e-06
1.00946e-06
1.00942e-06
1.01171e-06
1.01279e-06
1.01257e-06
1.01127e-06
1.00942e-06
1.00943e-06
1.00943e-06
1.00942e-06
1.01145e-06
1.01175e-06
1.01279e-06
1.01266e-06
1.01171e-06
1.0117e-06
1.0117e-06
1.01169e-06
1.01171e-06
1.01175e-06
1.01266e-06
1.01278e-06
1.01263e-06
1.01182e-06
1.01279e-06
1.01279e-06
1.00159e-06
1.00151e-06
1.0014e-06
1.00035e-06
1.00028e-06
1.00025e-06
1.00033e-06
1.0014e-06
1.00149e-06
1.0014e-06
9.99979e-07
9.98233e-07
9.98239e-07
9.98239e-07
9.98233e-07
1.00009e-06
1.00053e-06
1.00035e-06
9.98233e-07
9.98252e-07
9.98261e-07
9.98261e-07
9.98252e-07
9.98233e-07
1.00052e-06
1.0016e-06
1.00159e-06
1.00028e-06
9.98239e-07
9.98261e-07
9.98273e-07
9.98272e-07
9.98261e-07
9.98239e-07
1.00052e-06
1.00146e-06
1.00151e-06
1.00025e-06
9.98239e-07
9.98261e-07
9.98273e-07
9.98273e-07
9.98261e-07
9.98239e-07
1.0005e-06
1.00065e-06
1.00033e-06
9.98233e-07
9.98252e-07
9.98261e-07
9.98261e-07
9.98252e-07
9.98233e-07
1.00053e-06
1.00161e-06
1.0014e-06
1.00009e-06
9.98233e-07
9.98239e-07
9.98239e-07
9.98233e-07
1.00027e-06
1.00057e-06
1.00162e-06
1.00149e-06
1.00053e-06
1.00052e-06
1.00052e-06
1.0005e-06
1.00053e-06
1.00057e-06
1.00149e-06
1.0016e-06
1.00146e-06
1.00065e-06
1.00161e-06
1.00162e-06
9.9041e-07
9.90334e-07
9.90223e-07
9.8917e-07
9.89104e-07
9.89072e-07
9.89149e-07
9.9022e-07
9.9031e-07
9.90223e-07
9.88801e-07
9.87051e-07
9.87054e-07
9.87054e-07
9.87051e-07
9.88911e-07
9.89359e-07
9.8917e-07
9.87051e-07
9.87059e-07
9.87064e-07
9.87064e-07
9.87059e-07
9.87051e-07
9.89345e-07
9.90427e-07
9.90411e-07
9.89104e-07
9.87054e-07
9.87064e-07
9.87069e-07
9.87069e-07
9.87064e-07
9.87054e-07
9.89342e-07
9.9028e-07
9.90334e-07
9.89072e-07
9.87054e-07
9.87064e-07
9.87069e-07
9.87069e-07
9.87064e-07
9.87054e-07
9.89323e-07
9.8947e-07
9.89149e-07
9.87051e-07
9.87059e-07
9.87064e-07
9.87064e-07
9.87059e-07
9.87051e-07
9.89351e-07
9.90438e-07
9.9022e-07
9.88911e-07
9.87051e-07
9.87054e-07
9.87054e-07
9.87051e-07
9.89095e-07
9.89394e-07
9.90441e-07
9.9031e-07
9.89359e-07
9.89345e-07
9.89342e-07
9.89323e-07
9.89351e-07
9.89394e-07
9.90316e-07
9.90427e-07
9.9028e-07
9.8947e-07
9.90438e-07
9.90441e-07
9.79233e-07
9.79157e-07
9.79046e-07
9.77993e-07
9.77927e-07
9.77894e-07
9.77972e-07
9.79043e-07
9.79133e-07
9.79046e-07
9.77624e-07
9.75871e-07
9.75873e-07
9.75873e-07
9.75872e-07
9.77734e-07
9.78182e-07
9.77993e-07
9.75872e-07
9.75875e-07
9.75877e-07
9.75877e-07
9.75875e-07
9.75872e-07
9.78167e-07
9.7925e-07
9.79233e-07
9.77927e-07
9.75873e-07
9.75877e-07
9.7588e-07
9.7588e-07
9.75877e-07
9.75873e-07
9.78163e-07
9.79103e-07
9.79157e-07
9.77894e-07
9.75873e-07
9.75877e-07
9.7588e-07
9.7588e-07
9.75877e-07
9.75873e-07
9.78145e-07
9.78293e-07
9.77972e-07
9.75872e-07
9.75875e-07
9.75877e-07
9.75877e-07
9.75875e-07
9.75872e-07
9.78173e-07
9.79261e-07
9.79043e-07
9.77734e-07
9.75871e-07
9.75873e-07
9.75873e-07
9.75872e-07
9.77918e-07
9.78217e-07
9.79264e-07
9.79133e-07
9.78182e-07
9.78167e-07
9.78163e-07
9.78145e-07
9.78173e-07
9.78217e-07
9.79139e-07
9.7925e-07
9.79102e-07
9.78293e-07
9.79261e-07
9.79264e-07
9.68056e-07
9.6798e-07
9.67869e-07
9.66816e-07
9.66749e-07
9.66717e-07
9.66794e-07
9.67866e-07
9.67956e-07
9.67869e-07
9.66446e-07
9.64693e-07
9.64694e-07
9.64694e-07
9.64693e-07
9.66556e-07
9.67004e-07
9.66816e-07
9.64693e-07
9.64695e-07
9.64696e-07
9.64696e-07
9.64695e-07
9.64693e-07
9.6699e-07
9.68073e-07
9.68056e-07
9.66749e-07
9.64694e-07
9.64696e-07
9.64697e-07
9.64697e-07
9.64696e-07
9.64694e-07
9.66986e-07
9.67925e-07
9.6798e-07
9.66717e-07
9.64694e-07
9.64696e-07
9.64697e-07
9.64697e-07
9.64696e-07
9.64694e-07
9.66967e-07
9.67116e-07
9.66794e-07
9.64693e-07
9.64695e-07
9.64696e-07
9.64696e-07
9.64695e-07
9.64693e-07
9.66995e-07
9.68084e-07
9.67866e-07
9.66556e-07
9.64693e-07
9.64694e-07
9.64694e-07
9.64693e-07
9.6674e-07
9.6704e-07
9.68087e-07
9.67957e-07
9.67005e-07
9.6699e-07
9.66985e-07
9.66967e-07
9.66995e-07
9.6704e-07
9.67962e-07
9.68073e-07
9.67925e-07
9.67115e-07
9.68083e-07
9.68087e-07
9.56879e-07
9.56802e-07
9.56692e-07
9.55638e-07
9.55571e-07
9.55539e-07
9.55616e-07
9.56688e-07
9.56779e-07
9.56692e-07
9.55268e-07
9.53515e-07
9.53515e-07
9.53515e-07
9.53515e-07
9.55379e-07
9.55827e-07
9.55638e-07
9.53515e-07
9.53516e-07
9.53516e-07
9.53516e-07
9.53516e-07
9.53515e-07
9.55812e-07
9.56895e-07
9.56879e-07
9.55571e-07
9.53515e-07
9.53516e-07
9.53517e-07
9.53517e-07
9.53516e-07
9.53515e-07
9.55808e-07
9.56748e-07
9.56802e-07
9.55539e-07
9.53515e-07
9.53516e-07
9.53517e-07
9.53517e-07
9.53516e-07
9.53515e-07
9.55789e-07
9.55938e-07
9.55616e-07
9.53515e-07
9.53516e-07
9.53516e-07
9.53516e-07
9.53516e-07
9.53515e-07
9.55818e-07
9.56906e-07
9.56688e-07
9.55379e-07
9.53515e-07
9.53515e-07
9.53515e-07
9.53515e-07
9.55563e-07
9.55862e-07
9.5691e-07
9.56779e-07
9.55827e-07
9.55812e-07
9.55808e-07
9.55789e-07
9.55818e-07
9.55862e-07
9.56785e-07
9.56895e-07
9.56748e-07
9.55938e-07
9.56906e-07
9.5691e-07
9.45701e-07
9.45625e-07
9.45514e-07
9.4446e-07
9.44393e-07
9.44361e-07
9.44439e-07
9.4551e-07
9.45601e-07
9.45514e-07
9.44091e-07
9.42337e-07
9.42338e-07
9.42338e-07
9.42337e-07
9.44201e-07
9.44649e-07
9.4446e-07
9.42337e-07
9.42338e-07
9.42338e-07
9.42338e-07
9.42338e-07
9.42337e-07
9.44634e-07
9.45718e-07
9.45701e-07
9.44393e-07
9.42338e-07
9.42338e-07
9.42338e-07
9.42338e-07
9.42338e-07
9.42338e-07
9.4463e-07
9.4557e-07
9.45625e-07
9.44361e-07
9.42338e-07
9.42338e-07
9.42338e-07
9.42338e-07
9.42338e-07
9.42338e-07
9.44611e-07
9.4476e-07
9.44439e-07
9.42337e-07
9.42338e-07
9.42338e-07
9.42338e-07
9.42338e-07
9.42337e-07
9.4464e-07
9.45728e-07
9.4551e-07
9.44201e-07
9.42337e-07
9.42338e-07
9.42338e-07
9.42337e-07
9.44385e-07
9.44684e-07
9.45732e-07
9.45601e-07
9.44649e-07
9.44634e-07
9.4463e-07
9.44611e-07
9.4464e-07
9.44684e-07
9.45607e-07
9.45718e-07
9.4557e-07
9.4476e-07
9.45728e-07
9.45732e-07
9.34523e-07
9.34447e-07
9.34336e-07
9.33283e-07
9.33216e-07
9.33184e-07
9.33261e-07
9.34333e-07
9.34424e-07
9.34336e-07
9.32913e-07
9.3116e-07
9.3116e-07
9.3116e-07
9.3116e-07
9.33023e-07
9.33472e-07
9.33283e-07
9.3116e-07
9.3116e-07
9.3116e-07
9.3116e-07
9.3116e-07
9.3116e-07
9.33457e-07
9.3454e-07
9.34523e-07
9.33216e-07
9.3116e-07
9.3116e-07
9.3116e-07
9.3116e-07
9.3116e-07
9.3116e-07
9.33452e-07
9.34393e-07
9.34447e-07
9.33184e-07
9.3116e-07
9.3116e-07
9.3116e-07
9.3116e-07
9.3116e-07
9.3116e-07
9.33434e-07
9.33583e-07
9.33261e-07
9.3116e-07
9.3116e-07
9.3116e-07
9.3116e-07
9.3116e-07
9.3116e-07
9.33462e-07
9.34551e-07
9.34333e-07
9.33023e-07
9.3116e-07
9.3116e-07
9.3116e-07
9.3116e-07
9.33207e-07
9.33507e-07
9.34555e-07
9.34424e-07
9.33472e-07
9.33457e-07
9.33452e-07
9.33434e-07
9.33462e-07
9.33507e-07
9.3443e-07
9.3454e-07
9.34393e-07
9.33583e-07
9.34551e-07
9.34555e-07
9.23346e-07
9.2327e-07
9.23159e-07
9.22105e-07
9.22038e-07
9.22006e-07
9.22084e-07
9.23155e-07
9.23246e-07
9.23159e-07
9.21736e-07
9.19982e-07
9.19982e-07
9.19982e-07
9.19982e-07
9.21846e-07
9.22294e-07
9.22105e-07
9.19982e-07
9.19982e-07
9.19982e-07
9.19982e-07
9.19982e-07
9.19982e-07
9.22279e-07
9.23363e-07
9.23346e-07
9.22038e-07
9.19982e-07
9.19982e-07
9.19982e-07
9.19982e-07
9.19982e-07
9.19982e-07
9.22275e-07
9.23215e-07
9.2327e-07
9.22006e-07
9.19982e-07
9.19982e-07
9.19982e-07
9.19982e-07
9.19982e-07
9.19982e-07
9.22256e-07
9.22405e-07
9.22084e-07
9.19982e-07
9.19982e-07
9.19982e-07
9.19982e-07
9.19982e-07
9.19982e-07
9.22285e-07
9.23373e-07
9.23155e-07
9.21846e-07
9.19982e-07
9.19982e-07
9.19982e-07
9.19982e-07
9.22029e-07
9.22329e-07
9.23377e-07
9.23246e-07
9.22294e-07
9.22279e-07
9.22275e-07
9.22256e-07
9.22285e-07
9.22329e-07
9.23252e-07
9.23362e-07
9.23215e-07
9.22405e-07
9.23373e-07
9.23377e-07
9.12168e-07
9.12092e-07
9.11981e-07
9.10927e-07
9.10861e-07
9.10828e-07
9.10906e-07
9.11978e-07
9.12068e-07
9.11981e-07
9.10558e-07
9.08804e-07
9.08804e-07
9.08804e-07
9.08804e-07
9.10668e-07
9.11116e-07
9.10927e-07
9.08804e-07
9.08805e-07
9.08804e-07
9.08804e-07
9.08805e-07
9.08804e-07
9.11102e-07
9.12185e-07
9.12168e-07
9.10861e-07
9.08804e-07
9.08804e-07
9.08804e-07
9.08804e-07
9.08804e-07
9.08804e-07
9.11097e-07
9.12037e-07
9.12092e-07
9.10828e-07
9.08804e-07
9.08804e-07
9.08804e-07
9.08804e-07
9.08804e-07
9.08804e-07
9.11078e-07
9.11227e-07
9.10906e-07
9.08804e-07
9.08805e-07
9.08804e-07
9.08804e-07
9.08805e-07
9.08804e-07
9.11107e-07
9.12195e-07
9.11978e-07
9.10668e-07
9.08804e-07
9.08804e-07
9.08804e-07
9.08804e-07
9.10852e-07
9.11151e-07
9.12199e-07
9.12068e-07
9.11116e-07
9.11101e-07
9.11097e-07
9.11078e-07
9.11107e-07
9.11152e-07
9.12074e-07
9.12185e-07
9.12037e-07
9.11227e-07
9.12195e-07
9.12199e-07
9.0099e-07
9.00914e-07
9.00804e-07
8.9975e-07
8.99683e-07
8.99651e-07
8.99728e-07
9.008e-07
9.0089e-07
9.00803e-07
8.9938e-07
8.97627e-07
8.97627e-07
8.97627e-07
8.97626e-07
8.9949e-07
8.99938e-07
8.9975e-07
8.97627e-07
8.97627e-07
8.97627e-07
8.97627e-07
8.97627e-07
8.97626e-07
8.99924e-07
9.01007e-07
9.0099e-07
8.99683e-07
8.97627e-07
8.97627e-07
8.97627e-07
8.97627e-07
8.97627e-07
8.97627e-07
8.99919e-07
9.0086e-07
9.00914e-07
8.99651e-07
8.97627e-07
8.97627e-07
8.97627e-07
8.97627e-07
8.97627e-07
8.97627e-07
8.999e-07
9.0005e-07
8.99728e-07
8.97627e-07
8.97627e-07
8.97627e-07
8.97627e-07
8.97627e-07
8.97626e-07
8.99929e-07
9.01018e-07
9.008e-07
8.9949e-07
8.97627e-07
8.97627e-07
8.97627e-07
8.97626e-07
8.99674e-07
8.99974e-07
9.01022e-07
9.00891e-07
8.99939e-07
8.99924e-07
8.99919e-07
8.999e-07
8.99929e-07
8.99974e-07
9.00897e-07
9.01007e-07
9.0086e-07
9.0005e-07
9.01018e-07
9.01022e-07
8.89813e-07
8.89736e-07
8.89626e-07
8.88572e-07
8.88505e-07
8.88473e-07
8.8855e-07
8.89622e-07
8.89713e-07
8.89626e-07
8.88202e-07
8.86449e-07
8.86449e-07
8.86449e-07
8.86449e-07
8.88312e-07
8.88761e-07
8.88572e-07
8.86449e-07
8.86449e-07
8.86449e-07
8.86449e-07
8.86449e-07
8.86449e-07
8.88746e-07
8.89829e-07
8.89812e-07
8.88505e-07
8.86449e-07
8.86449e-07
8.86449e-07
8.86449e-07
8.86449e-07
8.86449e-07
8.88741e-07
8.89682e-07
8.89736e-07
8.88473e-07
8.86449e-07
8.86449e-07
8.86449e-07
8.86449e-07
8.86449e-07
8.86449e-07
8.88723e-07
8.88872e-07
8.8855e-07
8.86449e-07
8.86449e-07
8.86449e-07
8.86449e-07
8.86449e-07
8.86449e-07
8.88751e-07
8.8984e-07
8.89622e-07
8.88313e-07
8.86449e-07
8.86449e-07
8.86449e-07
8.86449e-07
8.88496e-07
8.88796e-07
8.89844e-07
8.89713e-07
8.88761e-07
8.88746e-07
8.88741e-07
8.88723e-07
8.88751e-07
8.88796e-07
8.89719e-07
8.89829e-07
8.89682e-07
8.88872e-07
8.8984e-07
8.89844e-07
8.78635e-07
8.78558e-07
8.78448e-07
8.77394e-07
8.77327e-07
8.77295e-07
8.77373e-07
8.78444e-07
8.78535e-07
8.78448e-07
8.77024e-07
8.75271e-07
8.75271e-07
8.75271e-07
8.75271e-07
8.77135e-07
8.77583e-07
8.77394e-07
8.75271e-07
8.75271e-07
8.75271e-07
8.75271e-07
8.75271e-07
8.75271e-07
8.77568e-07
8.78651e-07
8.78635e-07
8.77327e-07
8.75271e-07
8.75271e-07
8.75271e-07
8.75271e-07
8.75271e-07
8.75271e-07
8.77564e-07
8.78504e-07
8.78558e-07
8.77295e-07
8.75271e-07
8.75271e-07
8.75271e-07
8.75271e-07
8.75271e-07
8.75271e-07
8.77545e-07
8.77694e-07
8.77373e-07
8.75271e-07
8.75271e-07
8.75271e-07
8.75271e-07
8.75271e-07
8.75271e-07
8.77573e-07
8.78662e-07
8.78444e-07
8.77135e-07
8.75271e-07
8.75271e-07
8.75271e-07
8.75271e-07
8.77318e-07
8.77618e-07
8.78666e-07
8.78535e-07
8.77583e-07
8.77568e-07
8.77563e-07
8.77545e-07
8.77573e-07
8.77618e-07
8.78541e-07
8.78651e-07
8.78504e-07
8.77694e-07
8.78662e-07
8.78666e-07
8.67457e-07
8.67381e-07
8.6727e-07
8.66216e-07
8.66149e-07
8.66117e-07
8.66195e-07
8.67266e-07
8.67357e-07
8.6727e-07
8.65847e-07
8.64093e-07
8.64093e-07
8.64093e-07
8.64093e-07
8.65957e-07
8.66405e-07
8.66216e-07
8.64093e-07
8.64093e-07
8.64093e-07
8.64093e-07
8.64093e-07
8.64093e-07
8.6639e-07
8.67474e-07
8.67457e-07
8.66149e-07
8.64093e-07
8.64093e-07
8.64093e-07
8.64093e-07
8.64093e-07
8.64093e-07
8.66386e-07
8.67326e-07
8.67381e-07
8.66117e-07
8.64093e-07
8.64093e-07
8.64093e-07
8.64093e-07
8.64093e-07
8.64093e-07
8.66367e-07
8.66516e-07
8.66195e-07
8.64093e-07
8.64093e-07
8.64093e-07
8.64093e-07
8.64093e-07
8.64093e-07
8.66396e-07
8.67484e-07
8.67266e-07
8.65957e-07
8.64093e-07
8.64093e-07
8.64093e-07
8.64093e-07
8.66141e-07
8.6644e-07
8.67488e-07
8.67357e-07
8.66405e-07
8.6639e-07
8.66386e-07
8.66367e-07
8.66396e-07
8.6644e-07
8.67363e-07
8.67474e-07
8.67326e-07
8.66516e-07
8.67484e-07
8.67488e-07
8.56279e-07
8.56203e-07
8.56092e-07
8.55038e-07
8.54972e-07
8.54939e-07
8.55017e-07
8.56089e-07
8.56179e-07
8.56092e-07
8.54669e-07
8.52915e-07
8.52915e-07
8.52915e-07
8.52915e-07
8.54779e-07
8.55227e-07
8.55039e-07
8.52915e-07
8.52916e-07
8.52916e-07
8.52916e-07
8.52916e-07
8.52915e-07
8.55213e-07
8.56296e-07
8.56279e-07
8.54972e-07
8.52915e-07
8.52916e-07
8.52915e-07
8.52916e-07
8.52916e-07
8.52915e-07
8.55208e-07
8.56148e-07
8.56203e-07
8.54939e-07
8.52915e-07
8.52916e-07
8.52916e-07
8.52916e-07
8.52916e-07
8.52915e-07
8.55189e-07
8.55338e-07
8.55017e-07
8.52915e-07
8.52916e-07
8.52916e-07
8.52916e-07
8.52916e-07
8.52915e-07
8.55218e-07
8.56306e-07
8.56089e-07
8.54779e-07
8.52915e-07
8.52915e-07
8.52915e-07
8.52915e-07
8.54963e-07
8.55262e-07
8.5631e-07
8.56179e-07
8.55228e-07
8.55213e-07
8.55208e-07
8.55189e-07
8.55218e-07
8.55263e-07
8.56185e-07
8.56296e-07
8.56148e-07
8.55338e-07
8.56306e-07
8.5631e-07
8.45101e-07
8.45025e-07
8.44915e-07
8.43861e-07
8.43794e-07
8.43762e-07
8.43839e-07
8.44911e-07
8.45002e-07
8.44915e-07
8.43491e-07
8.41738e-07
8.41738e-07
8.41738e-07
8.41738e-07
8.43601e-07
8.4405e-07
8.43861e-07
8.41738e-07
8.41738e-07
8.41738e-07
8.41738e-07
8.41738e-07
8.41738e-07
8.44035e-07
8.45118e-07
8.45101e-07
8.43794e-07
8.41738e-07
8.41738e-07
8.41738e-07
8.41738e-07
8.41738e-07
8.41738e-07
8.4403e-07
8.44971e-07
8.45025e-07
8.43762e-07
8.41738e-07
8.41738e-07
8.41738e-07
8.41738e-07
8.41738e-07
8.41738e-07
8.44012e-07
8.44161e-07
8.43839e-07
8.41738e-07
8.41738e-07
8.41738e-07
8.41738e-07
8.41738e-07
8.41738e-07
8.4404e-07
8.45129e-07
8.44911e-07
8.43601e-07
8.41738e-07
8.41738e-07
8.41738e-07
8.41738e-07
8.43785e-07
8.44085e-07
8.45133e-07
8.45002e-07
8.4405e-07
8.44035e-07
8.4403e-07
8.44012e-07
8.4404e-07
8.44085e-07
8.45008e-07
8.45118e-07
8.44971e-07
8.44161e-07
8.45129e-07
8.45133e-07
8.33924e-07
8.33848e-07
8.33737e-07
8.32683e-07
8.32617e-07
8.32584e-07
8.32662e-07
8.33733e-07
8.33824e-07
8.33737e-07
8.32314e-07
8.3056e-07
8.3056e-07
8.3056e-07
8.3056e-07
8.32424e-07
8.32872e-07
8.32683e-07
8.3056e-07
8.3056e-07
8.3056e-07
8.3056e-07
8.3056e-07
8.3056e-07
8.32857e-07
8.33941e-07
8.33924e-07
8.32616e-07
8.3056e-07
8.3056e-07
8.3056e-07
8.3056e-07
8.3056e-07
8.3056e-07
8.32853e-07
8.33793e-07
8.33848e-07
8.32584e-07
8.3056e-07
8.3056e-07
8.3056e-07
8.3056e-07
8.3056e-07
8.3056e-07
8.32834e-07
8.32983e-07
8.32662e-07
8.3056e-07
8.3056e-07
8.3056e-07
8.3056e-07
8.3056e-07
8.3056e-07
8.32863e-07
8.33951e-07
8.33733e-07
8.32424e-07
8.3056e-07
8.3056e-07
8.3056e-07
8.3056e-07
8.32608e-07
8.32907e-07
8.33955e-07
8.33824e-07
8.32872e-07
8.32857e-07
8.32853e-07
8.32834e-07
8.32863e-07
8.32907e-07
8.3383e-07
8.33941e-07
8.33793e-07
8.32983e-07
8.33951e-07
8.33955e-07
8.22746e-07
8.2267e-07
8.22559e-07
8.21505e-07
8.21439e-07
8.21406e-07
8.21484e-07
8.22556e-07
8.22646e-07
8.22559e-07
8.21136e-07
8.19382e-07
8.19382e-07
8.19382e-07
8.19382e-07
8.21246e-07
8.21694e-07
8.21505e-07
8.19382e-07
8.19383e-07
8.19382e-07
8.19382e-07
8.19383e-07
8.19382e-07
8.2168e-07
8.22763e-07
8.22746e-07
8.21439e-07
8.19382e-07
8.19382e-07
8.19382e-07
8.19382e-07
8.19383e-07
8.19382e-07
8.21675e-07
8.22615e-07
8.2267e-07
8.21406e-07
8.19382e-07
8.19382e-07
8.19382e-07
8.19382e-07
8.19382e-07
8.19382e-07
8.21656e-07
8.21805e-07
8.21484e-07
8.19382e-07
8.19383e-07
8.19382e-07
8.19382e-07
8.19383e-07
8.19382e-07
8.21685e-07
8.22774e-07
8.22556e-07
8.21246e-07
8.19382e-07
8.19382e-07
8.19382e-07
8.19382e-07
8.2143e-07
8.2173e-07
8.22777e-07
8.22647e-07
8.21695e-07
8.2168e-07
8.21675e-07
8.21656e-07
8.21685e-07
8.2173e-07
8.22652e-07
8.22763e-07
8.22615e-07
8.21805e-07
8.22773e-07
8.22777e-07
8.11568e-07
8.11492e-07
8.11381e-07
8.10327e-07
8.10261e-07
8.10228e-07
8.10306e-07
8.11378e-07
8.11468e-07
8.11381e-07
8.09958e-07
8.08204e-07
8.08204e-07
8.08204e-07
8.08204e-07
8.10068e-07
8.10516e-07
8.10328e-07
8.08204e-07
8.08205e-07
8.08205e-07
8.08205e-07
8.08205e-07
8.08204e-07
8.10502e-07
8.11585e-07
8.11568e-07
8.10261e-07
8.08204e-07
8.08205e-07
8.08205e-07
8.08205e-07
8.08205e-07
8.08204e-07
8.10497e-07
8.11437e-07
8.11492e-07
8.10228e-07
8.08204e-07
8.08205e-07
8.08205e-07
8.08205e-07
8.08205e-07
8.08204e-07
8.10478e-07
8.10627e-07
8.10306e-07
8.08204e-07
8.08205e-07
8.08205e-07
8.08205e-07
8.08205e-07
8.08204e-07
8.10507e-07
8.11595e-07
8.11378e-07
8.10068e-07
8.08204e-07
8.08204e-07
8.08204e-07
8.08204e-07
8.10252e-07
8.10551e-07
8.11599e-07
8.11468e-07
8.10517e-07
8.10502e-07
8.10497e-07
8.10478e-07
8.10507e-07
8.10552e-07
8.11474e-07
8.11585e-07
8.11437e-07
8.10627e-07
8.11595e-07
8.11599e-07
8.0039e-07
8.00314e-07
8.00204e-07
7.9915e-07
7.99083e-07
7.99051e-07
7.99128e-07
8.002e-07
8.00291e-07
8.00204e-07
7.9878e-07
7.97027e-07
7.97027e-07
7.97027e-07
7.97027e-07
7.9889e-07
7.99339e-07
7.9915e-07
7.97027e-07
7.97027e-07
7.97027e-07
7.97027e-07
7.97027e-07
7.97027e-07
7.99324e-07
8.00407e-07
8.0039e-07
7.99083e-07
7.97027e-07
7.97027e-07
7.97027e-07
7.97027e-07
7.97027e-07
7.97027e-07
7.99319e-07
8.0026e-07
8.00314e-07
7.99051e-07
7.97027e-07
7.97027e-07
7.97027e-07
7.97027e-07
7.97027e-07
7.97027e-07
7.99301e-07
7.9945e-07
7.99128e-07
7.97027e-07
7.97027e-07
7.97027e-07
7.97027e-07
7.97027e-07
7.97027e-07
7.99329e-07
8.00418e-07
8.002e-07
7.9889e-07
7.97027e-07
7.97027e-07
7.97027e-07
7.97027e-07
7.99074e-07
7.99374e-07
8.00422e-07
8.00291e-07
7.99339e-07
7.99324e-07
7.99319e-07
7.993e-07
7.99329e-07
7.99374e-07
8.00297e-07
8.00407e-07
8.0026e-07
7.9945e-07
8.00418e-07
8.00422e-07
7.89213e-07
7.89136e-07
7.89026e-07
7.87972e-07
7.87905e-07
7.87873e-07
7.87951e-07
7.89022e-07
7.89113e-07
7.89026e-07
7.87602e-07
7.85849e-07
7.85849e-07
7.85849e-07
7.85849e-07
7.87713e-07
7.88161e-07
7.87972e-07
7.85849e-07
7.85849e-07
7.85849e-07
7.85849e-07
7.85849e-07
7.85849e-07
7.88146e-07
7.89229e-07
7.89213e-07
7.87905e-07
7.85849e-07
7.85849e-07
7.85849e-07
7.85849e-07
7.85849e-07
7.85849e-07
7.88142e-07
7.89082e-07
7.89136e-07
7.87873e-07
7.85849e-07
7.85849e-07
7.85849e-07
7.85849e-07
7.85849e-07
7.85849e-07
7.88123e-07
7.88272e-07
7.87951e-07
7.85849e-07
7.85849e-07
7.85849e-07
7.85849e-07
7.85849e-07
7.85849e-07
7.88152e-07
7.8924e-07
7.89022e-07
7.87713e-07
7.85849e-07
7.85849e-07
7.85849e-07
7.85849e-07
7.87896e-07
7.88196e-07
7.89244e-07
7.89113e-07
7.88161e-07
7.88146e-07
7.88141e-07
7.88123e-07
7.88151e-07
7.88196e-07
7.89119e-07
7.89229e-07
7.89082e-07
7.88272e-07
7.8924e-07
7.89244e-07
7.78035e-07
7.77959e-07
7.77848e-07
7.76794e-07
7.76727e-07
7.76695e-07
7.76773e-07
7.77844e-07
7.77935e-07
7.77848e-07
7.76425e-07
7.74671e-07
7.74671e-07
7.74671e-07
7.74671e-07
7.76535e-07
7.76983e-07
7.76794e-07
7.74671e-07
7.74672e-07
7.74671e-07
7.74671e-07
7.74672e-07
7.74671e-07
7.76968e-07
7.78052e-07
7.78035e-07
7.76727e-07
7.74671e-07
7.74671e-07
7.74671e-07
7.74671e-07
7.74671e-07
7.74671e-07
7.76964e-07
7.77904e-07
7.77959e-07
7.76695e-07
7.74671e-07
7.74671e-07
7.74671e-07
7.74671e-07
7.74671e-07
7.74671e-07
7.76945e-07
7.77094e-07
7.76773e-07
7.74671e-07
7.74672e-07
7.74671e-07
7.74671e-07
7.74672e-07
7.74671e-07
7.76974e-07
7.78062e-07
7.77844e-07
7.76535e-07
7.74671e-07
7.74671e-07
7.74671e-07
7.74671e-07
7.76719e-07
7.77018e-07
7.78066e-07
7.77935e-07
7.76983e-07
7.76968e-07
7.76964e-07
7.76945e-07
7.76974e-07
7.77018e-07
7.77941e-07
7.78052e-07
7.77904e-07
7.77094e-07
7.78062e-07
7.78066e-07
7.66857e-07
7.66781e-07
7.6667e-07
7.65617e-07
7.6555e-07
7.65518e-07
7.65595e-07
7.66667e-07
7.66757e-07
7.6667e-07
7.65247e-07
7.63493e-07
7.63494e-07
7.63493e-07
7.63493e-07
7.65357e-07
7.65805e-07
7.65617e-07
7.63493e-07
7.63494e-07
7.63494e-07
7.63494e-07
7.63494e-07
7.63493e-07
7.65791e-07
7.66874e-07
7.66857e-07
7.6555e-07
7.63494e-07
7.63494e-07
7.63494e-07
7.63494e-07
7.63494e-07
7.63493e-07
7.65786e-07
7.66726e-07
7.66781e-07
7.65518e-07
7.63494e-07
7.63494e-07
7.63494e-07
7.63494e-07
7.63494e-07
7.63494e-07
7.65767e-07
7.65916e-07
7.65595e-07
7.63493e-07
7.63494e-07
7.63494e-07
7.63494e-07
7.63494e-07
7.63493e-07
7.65796e-07
7.66885e-07
7.66667e-07
7.65357e-07
7.63493e-07
7.63494e-07
7.63494e-07
7.63493e-07
7.65541e-07
7.65841e-07
7.66888e-07
7.66758e-07
7.65806e-07
7.65791e-07
7.65786e-07
7.65767e-07
7.65796e-07
7.65841e-07
7.66763e-07
7.66874e-07
7.66726e-07
7.65916e-07
7.66884e-07
7.66888e-07
7.5568e-07
7.55603e-07
7.55493e-07
7.54439e-07
7.54372e-07
7.5434e-07
7.54418e-07
7.55489e-07
7.5558e-07
7.55493e-07
7.54069e-07
7.52316e-07
7.52316e-07
7.52316e-07
7.52316e-07
7.5418e-07
7.54628e-07
7.54439e-07
7.52316e-07
7.52316e-07
7.52316e-07
7.52316e-07
7.52316e-07
7.52316e-07
7.54613e-07
7.55696e-07
7.5568e-07
7.54372e-07
7.52316e-07
7.52316e-07
7.52316e-07
7.52316e-07
7.52316e-07
7.52316e-07
7.54608e-07
7.55549e-07
7.55603e-07
7.5434e-07
7.52316e-07
7.52316e-07
7.52316e-07
7.52316e-07
7.52316e-07
7.52316e-07
7.5459e-07
7.54739e-07
7.54417e-07
7.52316e-07
7.52316e-07
7.52316e-07
7.52316e-07
7.52316e-07
7.52316e-07
7.54618e-07
7.55707e-07
7.55489e-07
7.5418e-07
7.52316e-07
7.52316e-07
7.52316e-07
7.52316e-07
7.54363e-07
7.54663e-07
7.55711e-07
7.5558e-07
7.54628e-07
7.54613e-07
7.54608e-07
7.5459e-07
7.54618e-07
7.54663e-07
7.55586e-07
7.55696e-07
7.55549e-07
7.54739e-07
7.55707e-07
7.55711e-07
7.44502e-07
7.44426e-07
7.44315e-07
7.43261e-07
7.43194e-07
7.43162e-07
7.4324e-07
7.44311e-07
7.44402e-07
7.44315e-07
7.42891e-07
7.41138e-07
7.41138e-07
7.41138e-07
7.41138e-07
7.43002e-07
7.4345e-07
7.43261e-07
7.41138e-07
7.41138e-07
7.41138e-07
7.41138e-07
7.41138e-07
7.41138e-07
7.43435e-07
7.44518e-07
7.44502e-07
7.43194e-07
7.41138e-07
7.41138e-07
7.41138e-07
7.41138e-07
7.41138e-07
7.41138e-07
7.43431e-07
7.44371e-07
7.44425e-07
7.43162e-07
7.41138e-07
7.41138e-07
7.41138e-07
7.41138e-07
7.41138e-07
7.41138e-07
7.43412e-07
7.43561e-07
7.4324e-07
7.41138e-07
7.41138e-07
7.41138e-07
7.41138e-07
7.41138e-07
7.41138e-07
7.43441e-07
7.44529e-07
7.44311e-07
7.43002e-07
7.41138e-07
7.41138e-07
7.41138e-07
7.41138e-07
7.43185e-07
7.43485e-07
7.44533e-07
7.44402e-07
7.4345e-07
7.43435e-07
7.4343e-07
7.43412e-07
7.4344e-07
7.43485e-07
7.44408e-07
7.44518e-07
7.44371e-07
7.43561e-07
7.44529e-07
7.44533e-07
7.33324e-07
7.33248e-07
7.33137e-07
7.32083e-07
7.32017e-07
7.31984e-07
7.32062e-07
7.33134e-07
7.33224e-07
7.33137e-07
7.31714e-07
7.2996e-07
7.2996e-07
7.2996e-07
7.2996e-07
7.31824e-07
7.32272e-07
7.32083e-07
7.2996e-07
7.29961e-07
7.2996e-07
7.2996e-07
7.2996e-07
7.2996e-07
7.32257e-07
7.33341e-07
7.33324e-07
7.32016e-07
7.2996e-07
7.2996e-07
7.2996e-07
7.2996e-07
7.2996e-07
7.2996e-07
7.32253e-07
7.33193e-07
7.33248e-07
7.31984e-07
7.2996e-07
7.2996e-07
7.2996e-07
7.2996e-07
7.2996e-07
7.2996e-07
7.32234e-07
7.32383e-07
7.32062e-07
7.2996e-07
7.29961e-07
7.2996e-07
7.2996e-07
7.29961e-07
7.2996e-07
7.32263e-07
7.33351e-07
7.33133e-07
7.31824e-07
7.2996e-07
7.2996e-07
7.2996e-07
7.2996e-07
7.32008e-07
7.32307e-07
7.33355e-07
7.33224e-07
7.32272e-07
7.32257e-07
7.32253e-07
7.32234e-07
7.32263e-07
7.32307e-07
7.3323e-07
7.33341e-07
7.33193e-07
7.32383e-07
7.33351e-07
7.33355e-07
7.22146e-07
7.2207e-07
7.2196e-07
7.20906e-07
7.20839e-07
7.20807e-07
7.20884e-07
7.21956e-07
7.22047e-07
7.21959e-07
7.20536e-07
7.18783e-07
7.18783e-07
7.18783e-07
7.18783e-07
7.20646e-07
7.21094e-07
7.20906e-07
7.18783e-07
7.18783e-07
7.18783e-07
7.18783e-07
7.18783e-07
7.18783e-07
7.2108e-07
7.22163e-07
7.22146e-07
7.20839e-07
7.18783e-07
7.18783e-07
7.18783e-07
7.18783e-07
7.18783e-07
7.18783e-07
7.21075e-07
7.22016e-07
7.2207e-07
7.20807e-07
7.18783e-07
7.18783e-07
7.18783e-07
7.18783e-07
7.18783e-07
7.18783e-07
7.21057e-07
7.21206e-07
7.20884e-07
7.18783e-07
7.18783e-07
7.18783e-07
7.18783e-07
7.18783e-07
7.18783e-07
7.21085e-07
7.22174e-07
7.21956e-07
7.20646e-07
7.18783e-07
7.18783e-07
7.18783e-07
7.18783e-07
7.2083e-07
7.2113e-07
7.22178e-07
7.22047e-07
7.21095e-07
7.2108e-07
7.21075e-07
7.21056e-07
7.21085e-07
7.2113e-07
7.22053e-07
7.22163e-07
7.22016e-07
7.21206e-07
7.22174e-07
7.22178e-07
7.10969e-07
7.10892e-07
7.10782e-07
7.09728e-07
7.09661e-07
7.09629e-07
7.09707e-07
7.10778e-07
7.10869e-07
7.10782e-07
7.09358e-07
7.07605e-07
7.07605e-07
7.07605e-07
7.07605e-07
7.09469e-07
7.09917e-07
7.09728e-07
7.07605e-07
7.07605e-07
7.07605e-07
7.07605e-07
7.07605e-07
7.07605e-07
7.09902e-07
7.10985e-07
7.10969e-07
7.09661e-07
7.07605e-07
7.07605e-07
7.07605e-07
7.07605e-07
7.07605e-07
7.07605e-07
7.09897e-07
7.10838e-07
7.10892e-07
7.09629e-07
7.07605e-07
7.07605e-07
7.07605e-07
7.07605e-07
7.07605e-07
7.07605e-07
7.09879e-07
7.10028e-07
7.09707e-07
7.07605e-07
7.07605e-07
7.07605e-07
7.07605e-07
7.07605e-07
7.07605e-07
7.09907e-07
7.10996e-07
7.10778e-07
7.09469e-07
7.07605e-07
7.07605e-07
7.07605e-07
7.07605e-07
7.09652e-07
7.09952e-07
7.11e-07
7.10869e-07