/*--------------------------------*- C++ -*----------------------------------*\
| =========                 |                                                 |
| \\      /  F ield         | OpenFOAM: The Open Source CFD Toolbox           |
|  \\    /   O peration     | Version:  v2012                                 |
|   \\  /    A nd           | Website:  www.openfoam.com                      |
|    \\/     M anipulation  |                                                 |
\*---------------------------------------------------------------------------*/
FoamFile
{
    version     2.0;
    format      ascii;
    class       volScalarField;
    location    "0.05";
    object      p;
}
// * * * * * * * * * * * * * * * * * * * * * * * * * * * * * * * * * * * * * //

dimensions      [0 2 -2 0 0 0 0];


internalField   nonuniform List<scalar> 
189320
(
-7.51609e-06
-7.48263e-06
-7.50359e-06
-7.54113e-06
-7.58073e-06
-7.59021e-06
-7.565e-06
-7.54606e-06
-7.51335e-06
-7.50356e-06
-7.57628e-06
-7.59159e-06
-7.60638e-06
-7.60929e-06
-7.59997e-06
-7.5857e-06
-7.54314e-06
-7.54108e-06
-7.59164e-06
-7.61234e-06
-7.62239e-06
-7.62425e-06
-7.61842e-06
-7.60186e-06
-7.58033e-06
-7.53716e-06
-7.51693e-06
-7.58074e-06
-7.60639e-06
-7.6224e-06
-7.62875e-06
-7.62984e-06
-7.62641e-06
-7.61615e-06
-7.59226e-06
-7.55295e-06
-7.48319e-06
-7.59041e-06
-7.60933e-06
-7.62427e-06
-7.62983e-06
-7.63085e-06
-7.62787e-06
-7.61871e-06
-7.59902e-06
-7.54205e-06
-7.56513e-06
-7.60001e-06
-7.61843e-06
-7.62641e-06
-7.62788e-06
-7.62334e-06
-7.61059e-06
-7.58646e-06
-7.52543e-06
-7.5462e-06
-7.58575e-06
-7.60185e-06
-7.61612e-06
-7.61868e-06
-7.61059e-06
-7.59095e-06
-7.56995e-06
-7.5324e-06
-7.51347e-06
-7.54314e-06
-7.58029e-06
-7.59216e-06
-7.59892e-06
-7.58642e-06
-7.5699e-06
-7.54749e-06
-7.53707e-06
-7.55287e-06
-7.5416e-06
-7.52524e-06
-7.5323e-06
-7.53777e-06
-7.54278e-06
-7.53452e-06
-7.51711e-06
-7.51381e-06
-7.50127e-06
-7.51373e-06
-7.5552e-06
-7.54674e-06
-7.53459e-06
-7.48711e-06
-7.50747e-06
-7.5243e-06
-7.52448e-06
-7.50748e-06
-7.54211e-06
-7.54883e-06
-7.51687e-06
-7.5074e-06
-7.56054e-06
-7.57125e-06
-7.57136e-06
-7.56054e-06
-7.50737e-06
-7.59352e-06
-7.56419e-06
-7.53784e-06
-7.51392e-06
-7.52439e-06
-7.57137e-06
-7.57622e-06
-7.57622e-06
-7.5713e-06
-7.52434e-06
-7.59916e-06
-7.56473e-06
-7.54283e-06
-7.50146e-06
-7.52437e-06
-7.57135e-06
-7.57623e-06
-7.57622e-06
-7.57126e-06
-7.52429e-06
-7.60051e-06
-7.55165e-06
-7.5138e-06
-7.50746e-06
-7.56052e-06
-7.57132e-06
-7.57136e-06
-7.5605e-06
-7.50742e-06
-7.60103e-06
-7.57353e-06
-7.55519e-06
-7.54216e-06
-7.50731e-06
-7.52423e-06
-7.5244e-06
-7.50732e-06
-7.6352e-06
-7.5745e-06
-7.55618e-06
-7.5467e-06
-7.54884e-06
-7.59345e-06
-7.59909e-06
-7.60058e-06
-7.60094e-06
-7.57464e-06
-7.58205e-06
-7.56416e-06
-7.56469e-06
-7.55164e-06
-7.57344e-06
-7.55608e-06
-7.47238e-06
-7.47295e-06
-7.46411e-06
-7.4495e-06
-7.44736e-06
-7.44578e-06
-7.44859e-06
-7.48571e-06
-7.47623e-06
-7.46413e-06
-7.42425e-06
-7.43289e-06
-7.43673e-06
-7.43681e-06
-7.43293e-06
-7.48111e-06
-7.46979e-06
-7.44951e-06
-7.43288e-06
-7.45349e-06
-7.45906e-06
-7.4592e-06
-7.45349e-06
-7.43287e-06
-7.51598e-06
-7.49738e-06
-7.47231e-06
-7.44728e-06
-7.43672e-06
-7.45917e-06
-7.46415e-06
-7.46418e-06
-7.45912e-06
-7.4368e-06
-7.53229e-06
-7.49496e-06
-7.47289e-06
-7.44573e-06
-7.43669e-06
-7.45917e-06
-7.46418e-06
-7.46418e-06
-7.45909e-06
-7.43678e-06
-7.53624e-06
-7.46878e-06
-7.44854e-06
-7.43287e-06
-7.45346e-06
-7.45909e-06
-7.45918e-06
-7.45345e-06
-7.43287e-06
-7.53018e-06
-7.51006e-06
-7.48563e-06
-7.48106e-06
-7.43276e-06
-7.43665e-06
-7.43674e-06
-7.43282e-06
-7.548e-06
-7.49633e-06
-7.48843e-06
-7.47614e-06
-7.46975e-06
-7.51594e-06
-7.53215e-06
-7.53611e-06
-7.53021e-06
-7.49634e-06
-7.51071e-06
-7.49734e-06
-7.49487e-06
-7.4687e-06
-7.50996e-06
-7.48833e-06
-7.39354e-06
-7.39355e-06
-7.38651e-06
-7.36975e-06
-7.36819e-06
-7.36614e-06
-7.36961e-06
-7.40763e-06
-7.39907e-06
-7.38655e-06
-7.34366e-06
-7.35425e-06
-7.35519e-06
-7.35522e-06
-7.35426e-06
-7.4026e-06
-7.39191e-06
-7.36968e-06
-7.35424e-06
-7.36094e-06
-7.36315e-06
-7.36323e-06
-7.36095e-06
-7.35422e-06
-7.4346e-06
-7.41882e-06
-7.39347e-06
-7.36815e-06
-7.35515e-06
-7.3632e-06
-7.36567e-06
-7.36569e-06
-7.36319e-06
-7.35521e-06
-7.45155e-06
-7.41534e-06
-7.39348e-06
-7.36609e-06
-7.35515e-06
-7.36322e-06
-7.3657e-06
-7.3657e-06
-7.36318e-06
-7.35521e-06
-7.45363e-06
-7.38806e-06
-7.36957e-06
-7.3542e-06
-7.36093e-06
-7.36316e-06
-7.36321e-06
-7.36094e-06
-7.35426e-06
-7.44706e-06
-7.43108e-06
-7.40757e-06
-7.40256e-06
-7.35417e-06
-7.3551e-06
-7.35514e-06
-7.35422e-06
-7.46928e-06
-7.41655e-06
-7.4102e-06
-7.39899e-06
-7.39185e-06
-7.43456e-06
-7.45149e-06
-7.45357e-06
-7.44702e-06
-7.4166e-06
-7.43407e-06
-7.41878e-06
-7.41525e-06
-7.38801e-06
-7.431e-06
-7.41017e-06
-7.31239e-06
-7.31226e-06
-7.306e-06
-7.28827e-06
-7.28628e-06
-7.28378e-06
-7.28823e-06
-7.32677e-06
-7.31867e-06
-7.30596e-06
-7.26139e-06
-7.27285e-06
-7.27314e-06
-7.27315e-06
-7.27286e-06
-7.32125e-06
-7.31145e-06
-7.28822e-06
-7.27283e-06
-7.27524e-06
-7.27577e-06
-7.27579e-06
-7.27525e-06
-7.27285e-06
-7.35294e-06
-7.33791e-06
-7.3124e-06
-7.28623e-06
-7.27311e-06
-7.27578e-06
-7.27645e-06
-7.27647e-06
-7.27578e-06
-7.27314e-06
-7.36866e-06
-7.3339e-06
-7.31224e-06
-7.28373e-06
-7.27311e-06
-7.27577e-06
-7.27647e-06
-7.27648e-06
-7.27576e-06
-7.27312e-06
-7.37054e-06
-7.30657e-06
-7.2882e-06
-7.27284e-06
-7.27523e-06
-7.27577e-06
-7.27579e-06
-7.27523e-06
-7.27284e-06
-7.3646e-06
-7.34988e-06
-7.32676e-06
-7.32123e-06
-7.27282e-06
-7.27309e-06
-7.27313e-06
-7.27284e-06
-7.38816e-06
-7.33539e-06
-7.32936e-06
-7.31867e-06
-7.31149e-06
-7.35288e-06
-7.36864e-06
-7.37052e-06
-7.36458e-06
-7.33547e-06
-7.354e-06
-7.33782e-06
-7.33383e-06
-7.30652e-06
-7.34986e-06
-7.32934e-06
-7.23035e-06
-7.23019e-06
-7.22414e-06
-7.20607e-06
-7.20389e-06
-7.2011e-06
-7.20602e-06
-7.24485e-06
-7.23689e-06
-7.22411e-06
-7.17875e-06
-7.19054e-06
-7.19062e-06
-7.19062e-06
-7.19055e-06
-7.23905e-06
-7.22965e-06
-7.20609e-06
-7.19055e-06
-7.1915e-06
-7.19171e-06
-7.19171e-06
-7.1915e-06
-7.19056e-06
-7.27073e-06
-7.25589e-06
-7.23038e-06
-7.20389e-06
-7.19063e-06
-7.19171e-06
-7.19192e-06
-7.19192e-06
-7.19171e-06
-7.19062e-06
-7.28601e-06
-7.2517e-06
-7.23018e-06
-7.20109e-06
-7.19063e-06
-7.1917e-06
-7.19192e-06
-7.19191e-06
-7.1917e-06
-7.19062e-06
-7.28773e-06
-7.22448e-06
-7.20601e-06
-7.19056e-06
-7.1915e-06
-7.1917e-06
-7.1917e-06
-7.1915e-06
-7.19055e-06
-7.28206e-06
-7.26781e-06
-7.24483e-06
-7.23904e-06
-7.19053e-06
-7.19062e-06
-7.19064e-06
-7.19055e-06
-7.30622e-06
-7.25338e-06
-7.24743e-06
-7.23688e-06
-7.22964e-06
-7.27069e-06
-7.28599e-06
-7.28771e-06
-7.28203e-06
-7.25342e-06
-7.27239e-06
-7.25587e-06
-7.25166e-06
-7.22445e-06
-7.26778e-06
-7.24739e-06
-7.14797e-06
-7.14781e-06
-7.14182e-06
-7.12362e-06
-7.12134e-06
-7.1185e-06
-7.12354e-06
-7.16249e-06
-7.15459e-06
-7.14179e-06
-7.09612e-06
-7.10808e-06
-7.10807e-06
-7.10808e-06
-7.10809e-06
-7.15658e-06
-7.14735e-06
-7.12363e-06
-7.10808e-06
-7.10843e-06
-7.1085e-06
-7.10851e-06
-7.10843e-06
-7.10805e-06
-7.18829e-06
-7.17353e-06
-7.14801e-06
-7.12134e-06
-7.10807e-06
-7.1085e-06
-7.1086e-06
-7.1086e-06
-7.10852e-06
-7.10809e-06
-7.20345e-06
-7.16934e-06
-7.14781e-06
-7.11849e-06
-7.10807e-06
-7.10851e-06
-7.10861e-06
-7.1086e-06
-7.10852e-06
-7.10809e-06
-7.20509e-06
-7.14208e-06
-7.12353e-06
-7.10805e-06
-7.10843e-06
-7.10851e-06
-7.10851e-06
-7.10842e-06
-7.10806e-06
-7.19951e-06
-7.18549e-06
-7.16248e-06
-7.15659e-06
-7.10806e-06
-7.10808e-06
-7.10809e-06
-7.10807e-06
-7.22394e-06
-7.17101e-06
-7.16507e-06
-7.15461e-06
-7.14741e-06
-7.18827e-06
-7.20345e-06
-7.2051e-06
-7.19953e-06
-7.17108e-06
-7.19015e-06
-7.1735e-06
-7.16933e-06
-7.14209e-06
-7.18548e-06
-7.16506e-06
-7.06546e-06
-7.06531e-06
-7.05933e-06
-7.04109e-06
-7.03876e-06
-7.03587e-06
-7.04101e-06
-7.07997e-06
-7.07211e-06
-7.05929e-06
-7.01345e-06
-7.0255e-06
-7.02552e-06
-7.02554e-06
-7.02551e-06
-7.07403e-06
-7.06492e-06
-7.04109e-06
-7.02552e-06
-7.02565e-06
-7.02568e-06
-7.02569e-06
-7.02564e-06
-7.02552e-06
-7.10577e-06
-7.09103e-06
-7.06549e-06
-7.03877e-06
-7.02553e-06
-7.02568e-06
-7.02572e-06
-7.02573e-06
-7.02567e-06
-7.02552e-06
-7.1208e-06
-7.08681e-06
-7.0653e-06
-7.03587e-06
-7.02553e-06
-7.02568e-06
-7.02572e-06
-7.02572e-06
-7.02567e-06
-7.02552e-06
-7.12244e-06
-7.05957e-06
-7.041e-06
-7.02552e-06
-7.02564e-06
-7.02567e-06
-7.02567e-06
-7.02564e-06
-7.02552e-06
-7.11689e-06
-7.10294e-06
-7.07997e-06
-7.07404e-06
-7.02551e-06
-7.02552e-06
-7.02552e-06
-7.02551e-06
-7.14153e-06
-7.08854e-06
-7.08258e-06
-7.07212e-06
-7.06494e-06
-7.10571e-06
-7.12079e-06
-7.12243e-06
-7.11691e-06
-7.0886e-06
-7.10767e-06
-7.09101e-06
-7.08676e-06
-7.05956e-06
-7.10293e-06
-7.08258e-06
-6.9829e-06
-6.98275e-06
-6.97678e-06
-6.95852e-06
-6.95617e-06
-6.95326e-06
-6.95842e-06
-6.99742e-06
-6.98957e-06
-6.97674e-06
-6.93086e-06
-6.94293e-06
-6.94292e-06
-6.94292e-06
-6.94293e-06
-6.99147e-06
-6.98237e-06
-6.95852e-06
-6.94291e-06
-6.943e-06
-6.94302e-06
-6.94301e-06
-6.943e-06
-6.94293e-06
-7.02323e-06
-7.00849e-06
-6.98293e-06
-6.95618e-06
-6.94293e-06
-6.94301e-06
-6.94303e-06
-6.94303e-06
-6.94302e-06
-6.94295e-06
-7.03825e-06
-7.00427e-06
-6.98274e-06
-6.95327e-06
-6.94293e-06
-6.94302e-06
-6.94303e-06
-6.94304e-06
-6.94302e-06
-6.94294e-06
-7.03987e-06
-6.97704e-06
-6.95841e-06
-6.94293e-06
-6.943e-06
-6.94302e-06
-6.94302e-06
-6.943e-06
-6.94293e-06
-7.03433e-06
-7.02039e-06
-6.99741e-06
-6.99148e-06
-6.94292e-06
-6.94293e-06
-6.94294e-06
-6.94292e-06
-7.059e-06
-7.00597e-06
-7.00002e-06
-6.98958e-06
-6.98241e-06
-7.02318e-06
-7.03823e-06
-7.03986e-06
-7.03435e-06
-7.00605e-06
-7.02517e-06
-7.00847e-06
-7.00422e-06
-6.97703e-06
-7.02038e-06
-7.00002e-06
-6.90033e-06
-6.90019e-06
-6.89421e-06
-6.87594e-06
-6.87359e-06
-6.87065e-06
-6.87585e-06
-6.91487e-06
-6.90701e-06
-6.89418e-06
-6.84825e-06
-6.86036e-06
-6.86036e-06
-6.86036e-06
-6.86036e-06
-6.9089e-06
-6.89981e-06
-6.87594e-06
-6.86036e-06
-6.86037e-06
-6.86037e-06
-6.86038e-06
-6.86037e-06
-6.86036e-06
-6.94064e-06
-6.92593e-06
-6.90037e-06
-6.87359e-06
-6.86035e-06
-6.86038e-06
-6.86039e-06
-6.86039e-06
-6.86038e-06
-6.86036e-06
-6.95566e-06
-6.92171e-06
-6.90018e-06
-6.87066e-06
-6.86036e-06
-6.86038e-06
-6.86039e-06
-6.86038e-06
-6.86038e-06
-6.86037e-06
-6.95728e-06
-6.89449e-06
-6.87583e-06
-6.86034e-06
-6.86037e-06
-6.86038e-06
-6.86038e-06
-6.86037e-06
-6.86035e-06
-6.95174e-06
-6.93784e-06
-6.91485e-06
-6.9089e-06
-6.86035e-06
-6.86035e-06
-6.86036e-06
-6.86035e-06
-6.97644e-06
-6.92342e-06
-6.91746e-06
-6.90702e-06
-6.89985e-06
-6.94059e-06
-6.95564e-06
-6.95728e-06
-6.95178e-06
-6.92349e-06
-6.94261e-06
-6.9259e-06
-6.92167e-06
-6.89447e-06
-6.93783e-06
-6.91747e-06
-6.81775e-06
-6.8176e-06
-6.81162e-06
-6.79336e-06
-6.791e-06
-6.78806e-06
-6.79326e-06
-6.83228e-06
-6.82442e-06
-6.81159e-06
-6.76566e-06
-6.77777e-06
-6.77777e-06
-6.77777e-06
-6.77777e-06
-6.82629e-06
-6.81722e-06
-6.79335e-06
-6.77777e-06
-6.77777e-06
-6.77777e-06
-6.77777e-06
-6.77777e-06
-6.77777e-06
-6.85804e-06
-6.84334e-06
-6.81778e-06
-6.791e-06
-6.77777e-06
-6.77777e-06
-6.77778e-06
-6.77778e-06
-6.77777e-06
-6.77777e-06
-6.87304e-06
-6.83912e-06
-6.8176e-06
-6.78806e-06
-6.77777e-06
-6.77777e-06
-6.77778e-06
-6.77778e-06
-6.77777e-06
-6.77777e-06
-6.87465e-06
-6.81191e-06
-6.79325e-06
-6.77777e-06
-6.77777e-06
-6.77777e-06
-6.77777e-06
-6.77777e-06
-6.77777e-06
-6.86914e-06
-6.85525e-06
-6.83226e-06
-6.8263e-06
-6.77777e-06
-6.77777e-06
-6.77778e-06
-6.77777e-06
-6.89382e-06
-6.84083e-06
-6.83487e-06
-6.82443e-06
-6.81726e-06
-6.858e-06
-6.87303e-06
-6.87465e-06
-6.86917e-06
-6.8409e-06
-6.86003e-06
-6.84332e-06
-6.83908e-06
-6.81189e-06
-6.85524e-06
-6.83488e-06
-6.73516e-06
-6.73501e-06
-6.72902e-06
-6.71075e-06
-6.70841e-06
-6.70548e-06
-6.71068e-06
-6.74968e-06
-6.74183e-06
-6.72901e-06
-6.68307e-06
-6.69518e-06
-6.69518e-06
-6.69518e-06
-6.69518e-06
-6.74372e-06
-6.73463e-06
-6.71077e-06
-6.69518e-06
-6.69519e-06
-6.69519e-06
-6.69519e-06
-6.69519e-06
-6.69518e-06
-6.77547e-06
-6.76075e-06
-6.7352e-06
-6.70842e-06
-6.69518e-06
-6.69519e-06
-6.69519e-06
-6.69519e-06
-6.69519e-06
-6.69518e-06
-6.79047e-06
-6.75654e-06
-6.73501e-06
-6.70549e-06
-6.69518e-06
-6.69519e-06
-6.69519e-06
-6.69519e-06
-6.69519e-06
-6.69518e-06
-6.79208e-06
-6.72933e-06
-6.71067e-06
-6.69518e-06
-6.69519e-06
-6.69519e-06
-6.69519e-06
-6.69519e-06
-6.69518e-06
-6.78657e-06
-6.77268e-06
-6.74968e-06
-6.74373e-06
-6.69518e-06
-6.69518e-06
-6.69518e-06
-6.69518e-06
-6.81126e-06
-6.75824e-06
-6.75229e-06
-6.74185e-06
-6.73469e-06
-6.77542e-06
-6.79045e-06
-6.79208e-06
-6.78659e-06
-6.75832e-06
-6.77744e-06
-6.76074e-06
-6.75649e-06
-6.72931e-06
-6.77266e-06
-6.7523e-06
-6.65257e-06
-6.65243e-06
-6.64644e-06
-6.62817e-06
-6.62583e-06
-6.6229e-06
-6.62809e-06
-6.66709e-06
-6.65925e-06
-6.64643e-06
-6.60048e-06
-6.6126e-06
-6.6126e-06
-6.6126e-06
-6.6126e-06
-6.66114e-06
-6.65205e-06
-6.62819e-06
-6.6126e-06
-6.6126e-06
-6.6126e-06
-6.6126e-06
-6.6126e-06
-6.6126e-06
-6.69288e-06
-6.67817e-06
-6.65262e-06
-6.62583e-06
-6.6126e-06
-6.6126e-06
-6.6126e-06
-6.6126e-06
-6.6126e-06
-6.6126e-06
-6.70788e-06
-6.67395e-06
-6.65243e-06
-6.6229e-06
-6.6126e-06
-6.6126e-06
-6.6126e-06
-6.6126e-06
-6.6126e-06
-6.6126e-06
-6.7095e-06
-6.64675e-06
-6.62808e-06
-6.6126e-06
-6.6126e-06
-6.6126e-06
-6.6126e-06
-6.6126e-06
-6.6126e-06
-6.70398e-06
-6.69009e-06
-6.6671e-06
-6.66114e-06
-6.6126e-06
-6.6126e-06
-6.6126e-06
-6.6126e-06
-6.72868e-06
-6.67566e-06
-6.6697e-06
-6.65927e-06
-6.6521e-06
-6.69284e-06
-6.70787e-06
-6.7095e-06
-6.70401e-06
-6.67574e-06
-6.69486e-06
-6.67815e-06
-6.67391e-06
-6.64672e-06
-6.69008e-06
-6.66971e-06
-6.56999e-06
-6.56985e-06
-6.56385e-06
-6.54559e-06
-6.54325e-06
-6.54031e-06
-6.54551e-06
-6.58451e-06
-6.57666e-06
-6.56385e-06
-6.5179e-06
-6.53002e-06
-6.53002e-06
-6.53002e-06
-6.53002e-06
-6.57855e-06
-6.56947e-06
-6.5456e-06
-6.53002e-06
-6.53002e-06
-6.53002e-06
-6.53002e-06
-6.53001e-06
-6.53002e-06
-6.6103e-06
-6.59559e-06
-6.57003e-06
-6.54325e-06
-6.53002e-06
-6.53002e-06
-6.53002e-06
-6.53002e-06
-6.53002e-06
-6.53002e-06
-6.6253e-06
-6.59137e-06
-6.56985e-06
-6.54032e-06
-6.53002e-06
-6.53002e-06
-6.53002e-06
-6.53002e-06
-6.53002e-06
-6.53002e-06
-6.62691e-06
-6.56416e-06
-6.5455e-06
-6.53002e-06
-6.53002e-06
-6.53002e-06
-6.53002e-06
-6.53002e-06
-6.53002e-06
-6.6214e-06
-6.60751e-06
-6.58451e-06
-6.57856e-06
-6.53002e-06
-6.53002e-06
-6.53002e-06
-6.53002e-06
-6.64609e-06
-6.59307e-06
-6.58712e-06
-6.57669e-06
-6.56952e-06
-6.61025e-06
-6.62528e-06
-6.62691e-06
-6.62142e-06
-6.59315e-06
-6.61227e-06
-6.59557e-06
-6.59133e-06
-6.56414e-06
-6.60749e-06
-6.58713e-06
-6.48741e-06
-6.48726e-06
-6.48126e-06
-6.463e-06
-6.46066e-06
-6.45773e-06
-6.46293e-06
-6.50194e-06
-6.49408e-06
-6.48126e-06
-6.43531e-06
-6.44743e-06
-6.44743e-06
-6.44743e-06
-6.44743e-06
-6.49596e-06
-6.48688e-06
-6.46302e-06
-6.44743e-06
-6.44743e-06
-6.44743e-06
-6.44743e-06
-6.44743e-06
-6.44743e-06
-6.52771e-06
-6.513e-06
-6.48745e-06
-6.46066e-06
-6.44743e-06
-6.44743e-06
-6.44743e-06
-6.44743e-06
-6.44743e-06
-6.44743e-06
-6.54271e-06
-6.50878e-06
-6.48726e-06
-6.45773e-06
-6.44743e-06
-6.44743e-06
-6.44743e-06
-6.44743e-06
-6.44743e-06
-6.44743e-06
-6.54432e-06
-6.48158e-06
-6.46291e-06
-6.44743e-06
-6.44743e-06
-6.44743e-06
-6.44743e-06
-6.44743e-06
-6.44743e-06
-6.53881e-06
-6.52492e-06
-6.50193e-06
-6.49597e-06
-6.44743e-06
-6.44743e-06
-6.44743e-06
-6.44743e-06
-6.56351e-06
-6.51049e-06
-6.50453e-06
-6.4941e-06
-6.48693e-06
-6.52767e-06
-6.54269e-06
-6.54432e-06
-6.53884e-06
-6.51057e-06
-6.52969e-06
-6.51298e-06
-6.50874e-06
-6.48155e-06
-6.52491e-06
-6.50454e-06
-6.40482e-06
-6.40467e-06
-6.39868e-06
-6.38041e-06
-6.37807e-06
-6.37514e-06
-6.38034e-06
-6.41934e-06
-6.41149e-06
-6.39867e-06
-6.35273e-06
-6.36484e-06
-6.36484e-06
-6.36484e-06
-6.36484e-06
-6.41337e-06
-6.40429e-06
-6.38043e-06
-6.36484e-06
-6.36484e-06
-6.36484e-06
-6.36484e-06
-6.36484e-06
-6.36484e-06
-6.44512e-06
-6.43041e-06
-6.40486e-06
-6.37807e-06
-6.36484e-06
-6.36484e-06
-6.36484e-06
-6.36484e-06
-6.36484e-06
-6.36484e-06
-6.46012e-06
-6.4262e-06
-6.40467e-06
-6.37514e-06
-6.36484e-06
-6.36484e-06
-6.36484e-06
-6.36484e-06
-6.36484e-06
-6.36484e-06
-6.46174e-06
-6.39899e-06
-6.38032e-06
-6.36484e-06
-6.36484e-06
-6.36484e-06
-6.36484e-06
-6.36484e-06
-6.36484e-06
-6.45622e-06
-6.44233e-06
-6.41934e-06
-6.41339e-06
-6.36484e-06
-6.36484e-06
-6.36484e-06
-6.36484e-06
-6.48092e-06
-6.4279e-06
-6.42195e-06
-6.41151e-06
-6.40434e-06
-6.44508e-06
-6.4601e-06
-6.46173e-06
-6.45625e-06
-6.42798e-06
-6.4471e-06
-6.4304e-06
-6.42616e-06
-6.39896e-06
-6.44232e-06
-6.42196e-06
-6.32223e-06
-6.32209e-06
-6.31609e-06
-6.29783e-06
-6.29549e-06
-6.29255e-06
-6.29775e-06
-6.33676e-06
-6.3289e-06
-6.31608e-06
-6.27014e-06
-6.28225e-06
-6.28225e-06
-6.28225e-06
-6.28225e-06
-6.33078e-06
-6.3217e-06
-6.29784e-06
-6.28225e-06
-6.28225e-06
-6.28225e-06
-6.28225e-06
-6.28225e-06
-6.28225e-06
-6.36253e-06
-6.34782e-06
-6.32227e-06
-6.29548e-06
-6.28225e-06
-6.28225e-06
-6.28225e-06
-6.28225e-06
-6.28225e-06
-6.28225e-06
-6.37753e-06
-6.34361e-06
-6.32208e-06
-6.29255e-06
-6.28225e-06
-6.28225e-06
-6.28225e-06
-6.28225e-06
-6.28225e-06
-6.28225e-06
-6.37915e-06
-6.3164e-06
-6.29773e-06
-6.28225e-06
-6.28225e-06
-6.28225e-06
-6.28225e-06
-6.28225e-06
-6.28225e-06
-6.37363e-06
-6.35974e-06
-6.33675e-06
-6.3308e-06
-6.28225e-06
-6.28225e-06
-6.28225e-06
-6.28225e-06
-6.39833e-06
-6.34531e-06
-6.33936e-06
-6.32892e-06
-6.32175e-06
-6.36249e-06
-6.37752e-06
-6.37915e-06
-6.37367e-06
-6.34539e-06
-6.36451e-06
-6.34781e-06
-6.34357e-06
-6.31638e-06
-6.35972e-06
-6.33937e-06
-6.23964e-06
-6.2395e-06
-6.23349e-06
-6.21523e-06
-6.21289e-06
-6.20996e-06
-6.21516e-06
-6.25417e-06
-6.24632e-06
-6.2335e-06
-6.18755e-06
-6.19966e-06
-6.19966e-06
-6.19966e-06
-6.19966e-06
-6.24819e-06
-6.23912e-06
-6.21525e-06
-6.19966e-06
-6.19966e-06
-6.19966e-06
-6.19966e-06
-6.19966e-06
-6.19966e-06
-6.27994e-06
-6.26523e-06
-6.23968e-06
-6.2129e-06
-6.19966e-06
-6.19966e-06
-6.19966e-06
-6.19966e-06
-6.19966e-06
-6.19966e-06
-6.29495e-06
-6.26102e-06
-6.23949e-06
-6.20997e-06
-6.19966e-06
-6.19966e-06
-6.19966e-06
-6.19966e-06
-6.19966e-06
-6.19966e-06
-6.29656e-06
-6.23381e-06
-6.21515e-06
-6.19966e-06
-6.19966e-06
-6.19966e-06
-6.19966e-06
-6.19966e-06
-6.19966e-06
-6.29105e-06
-6.27715e-06
-6.25416e-06
-6.24821e-06
-6.19966e-06
-6.19966e-06
-6.19966e-06
-6.19966e-06
-6.31574e-06
-6.26272e-06
-6.25677e-06
-6.24634e-06
-6.23917e-06
-6.2799e-06
-6.29493e-06
-6.29657e-06
-6.29108e-06
-6.2628e-06
-6.28192e-06
-6.26522e-06
-6.26098e-06
-6.2338e-06
-6.27714e-06
-6.25678e-06
-6.15705e-06
-6.15691e-06
-6.15091e-06
-6.13265e-06
-6.13031e-06
-6.12737e-06
-6.13257e-06
-6.17157e-06
-6.16372e-06
-6.15091e-06
-6.10497e-06
-6.11708e-06
-6.11708e-06
-6.11708e-06
-6.11708e-06
-6.1656e-06
-6.15653e-06
-6.13266e-06
-6.11708e-06
-6.11708e-06
-6.11708e-06
-6.11708e-06
-6.11708e-06
-6.11707e-06
-6.19736e-06
-6.18264e-06
-6.1571e-06
-6.13031e-06
-6.11708e-06
-6.11708e-06
-6.11708e-06
-6.11708e-06
-6.11708e-06
-6.11708e-06
-6.21236e-06
-6.17843e-06
-6.15691e-06
-6.12738e-06
-6.11708e-06
-6.11708e-06
-6.11708e-06
-6.11708e-06
-6.11708e-06
-6.11708e-06
-6.21397e-06
-6.15122e-06
-6.13256e-06
-6.11708e-06
-6.11708e-06
-6.11708e-06
-6.11708e-06
-6.11708e-06
-6.11708e-06
-6.20846e-06
-6.19457e-06
-6.17158e-06
-6.16562e-06
-6.11708e-06
-6.11708e-06
-6.11708e-06
-6.11708e-06
-6.23316e-06
-6.18014e-06
-6.17418e-06
-6.16375e-06
-6.15658e-06
-6.19732e-06
-6.21234e-06
-6.21398e-06
-6.20849e-06
-6.18021e-06
-6.19934e-06
-6.18263e-06
-6.17839e-06
-6.15123e-06
-6.19454e-06
-6.17419e-06
-6.07446e-06
-6.07432e-06
-6.06832e-06
-6.05006e-06
-6.04772e-06
-6.04478e-06
-6.04997e-06
-6.089e-06
-6.08115e-06
-6.06832e-06
-6.02238e-06
-6.03449e-06
-6.03449e-06
-6.03449e-06
-6.03449e-06
-6.08302e-06
-6.07395e-06
-6.05008e-06
-6.03449e-06
-6.03449e-06
-6.03449e-06
-6.03449e-06
-6.03449e-06
-6.03449e-06
-6.11477e-06
-6.10006e-06
-6.07451e-06
-6.04772e-06
-6.03449e-06
-6.03449e-06
-6.03449e-06
-6.03449e-06
-6.03449e-06
-6.03449e-06
-6.12977e-06
-6.09584e-06
-6.07432e-06
-6.04479e-06
-6.03449e-06
-6.03449e-06
-6.03449e-06
-6.03449e-06
-6.03449e-06
-6.03449e-06
-6.13138e-06
-6.06864e-06
-6.04997e-06
-6.03449e-06
-6.03449e-06
-6.03449e-06
-6.03449e-06
-6.03449e-06
-6.03449e-06
-6.12587e-06
-6.11198e-06
-6.08899e-06
-6.08303e-06
-6.03449e-06
-6.03449e-06
-6.03449e-06
-6.03449e-06
-6.15057e-06
-6.09755e-06
-6.09159e-06
-6.08116e-06
-6.07399e-06
-6.11473e-06
-6.12976e-06
-6.13139e-06
-6.12591e-06
-6.09763e-06
-6.11675e-06
-6.10005e-06
-6.09581e-06
-6.06862e-06
-6.11195e-06
-6.09161e-06
-5.99188e-06
-5.99173e-06
-5.98573e-06
-5.96747e-06
-5.96513e-06
-5.96219e-06
-5.96739e-06
-6.00641e-06
-5.99857e-06
-5.98573e-06
-5.93979e-06
-5.9519e-06
-5.9519e-06
-5.9519e-06
-5.9519e-06
-6.00044e-06
-5.99136e-06
-5.96749e-06
-5.9519e-06
-5.9519e-06
-5.9519e-06
-5.9519e-06
-5.9519e-06
-5.9519e-06
-6.03219e-06
-6.01747e-06
-5.99192e-06
-5.96513e-06
-5.9519e-06
-5.9519e-06
-5.9519e-06
-5.9519e-06
-5.9519e-06
-5.9519e-06
-6.04719e-06
-6.01326e-06
-5.99173e-06
-5.9622e-06
-5.9519e-06
-5.9519e-06
-5.9519e-06
-5.9519e-06
-5.9519e-06
-5.9519e-06
-6.0488e-06
-5.98605e-06
-5.96739e-06
-5.9519e-06
-5.9519e-06
-5.9519e-06
-5.9519e-06
-5.9519e-06
-5.9519e-06
-6.04328e-06
-6.02939e-06
-6.0064e-06
-6.00045e-06
-5.9519e-06
-5.9519e-06
-5.9519e-06
-5.9519e-06
-6.06798e-06
-6.01496e-06
-6.00901e-06
-5.99857e-06
-5.99141e-06
-6.03214e-06
-6.04717e-06
-6.0488e-06
-6.04331e-06
-6.01504e-06
-6.03416e-06
-6.01746e-06
-6.01322e-06
-5.98604e-06
-6.02937e-06
-6.00902e-06
-5.90929e-06
-5.90915e-06
-5.90316e-06
-5.88488e-06
-5.88255e-06
-5.87961e-06
-5.8848e-06
-5.92382e-06
-5.91598e-06
-5.90315e-06
-5.8572e-06
-5.86932e-06
-5.86932e-06
-5.86932e-06
-5.86932e-06
-5.91786e-06
-5.90878e-06
-5.88491e-06
-5.86932e-06
-5.86932e-06
-5.86932e-06
-5.86932e-06
-5.86932e-06
-5.86932e-06
-5.9496e-06
-5.93489e-06
-5.90934e-06
-5.88255e-06
-5.86932e-06
-5.86932e-06
-5.86932e-06
-5.86932e-06
-5.86932e-06
-5.86932e-06
-5.9646e-06
-5.93067e-06
-5.90915e-06
-5.87962e-06
-5.86932e-06
-5.86932e-06
-5.86932e-06
-5.86932e-06
-5.86932e-06
-5.86932e-06
-5.96621e-06
-5.90347e-06
-5.8848e-06
-5.86932e-06
-5.86932e-06
-5.86932e-06
-5.86932e-06
-5.86932e-06
-5.86932e-06
-5.9607e-06
-5.94681e-06
-5.92382e-06
-5.91786e-06
-5.86932e-06
-5.86932e-06
-5.86932e-06
-5.86932e-06
-5.9854e-06
-5.93238e-06
-5.92642e-06
-5.91599e-06
-5.90882e-06
-5.94956e-06
-5.96459e-06
-5.96621e-06
-5.96072e-06
-5.93245e-06
-5.95158e-06
-5.93487e-06
-5.93064e-06
-5.90345e-06
-5.94678e-06
-5.92642e-06
-5.82671e-06
-5.82656e-06
-5.82057e-06
-5.8023e-06
-5.79996e-06
-5.79702e-06
-5.80222e-06
-5.84124e-06
-5.8334e-06
-5.82057e-06
-5.77462e-06
-5.78674e-06
-5.78674e-06
-5.78674e-06
-5.78674e-06
-5.83527e-06
-5.82619e-06
-5.80232e-06
-5.78673e-06
-5.78674e-06
-5.78674e-06
-5.78674e-06
-5.78674e-06
-5.78674e-06
-5.86702e-06
-5.8523e-06
-5.82675e-06
-5.79997e-06
-5.78673e-06
-5.78674e-06
-5.78674e-06
-5.78674e-06
-5.78674e-06
-5.78674e-06
-5.88202e-06
-5.84809e-06
-5.82656e-06
-5.79703e-06
-5.78673e-06
-5.78674e-06
-5.78674e-06
-5.78674e-06
-5.78674e-06
-5.78674e-06
-5.88363e-06
-5.82088e-06
-5.80222e-06
-5.78673e-06
-5.78674e-06
-5.78674e-06
-5.78674e-06
-5.78674e-06
-5.78674e-06
-5.87812e-06
-5.86423e-06
-5.84123e-06
-5.83528e-06
-5.78674e-06
-5.78674e-06
-5.78674e-06
-5.78674e-06
-5.90281e-06
-5.84979e-06
-5.84384e-06
-5.83341e-06
-5.82624e-06
-5.86698e-06
-5.882e-06
-5.88363e-06
-5.87814e-06
-5.84987e-06
-5.86899e-06
-5.85229e-06
-5.84805e-06
-5.82086e-06
-5.8642e-06
-5.84384e-06
-5.74413e-06
-5.74398e-06
-5.73798e-06
-5.71973e-06
-5.71739e-06
-5.71444e-06
-5.71963e-06
-5.75866e-06
-5.75082e-06
-5.73798e-06
-5.69203e-06
-5.70415e-06
-5.70415e-06
-5.70415e-06
-5.70415e-06
-5.75269e-06
-5.74361e-06
-5.71974e-06
-5.70415e-06
-5.70415e-06
-5.70415e-06
-5.70415e-06
-5.70415e-06
-5.70415e-06
-5.78444e-06
-5.76972e-06
-5.74417e-06
-5.71738e-06
-5.70415e-06
-5.70415e-06
-5.70415e-06
-5.70415e-06
-5.70415e-06
-5.70415e-06
-5.79943e-06
-5.7655e-06
-5.74398e-06
-5.71445e-06
-5.70415e-06
-5.70415e-06
-5.70415e-06
-5.70415e-06
-5.70415e-06
-5.70415e-06
-5.80105e-06
-5.7383e-06
-5.71963e-06
-5.70415e-06
-5.70415e-06
-5.70415e-06
-5.70415e-06
-5.70415e-06
-5.70415e-06
-5.79553e-06
-5.78164e-06
-5.75865e-06
-5.7527e-06
-5.70415e-06
-5.70415e-06
-5.70415e-06
-5.70415e-06
-5.82023e-06
-5.76721e-06
-5.76126e-06
-5.75082e-06
-5.74365e-06
-5.78439e-06
-5.79942e-06
-5.80104e-06
-5.79555e-06
-5.76729e-06
-5.78641e-06
-5.76971e-06
-5.76547e-06
-5.73828e-06
-5.78161e-06
-5.76126e-06
-5.66154e-06
-5.6614e-06
-5.65539e-06
-5.63714e-06
-5.6348e-06
-5.63186e-06
-5.63705e-06
-5.67606e-06
-5.66823e-06
-5.65539e-06
-5.60945e-06
-5.62157e-06
-5.62157e-06
-5.62157e-06
-5.62157e-06
-5.67011e-06
-5.66103e-06
-5.63715e-06
-5.62157e-06
-5.62157e-06
-5.62157e-06
-5.62157e-06
-5.62157e-06
-5.62157e-06
-5.70185e-06
-5.68713e-06
-5.66158e-06
-5.6348e-06
-5.62157e-06
-5.62157e-06
-5.62157e-06
-5.62157e-06
-5.62157e-06
-5.62157e-06
-5.71685e-06
-5.68292e-06
-5.6614e-06
-5.63187e-06
-5.62157e-06
-5.62157e-06
-5.62157e-06
-5.62157e-06
-5.62157e-06
-5.62157e-06
-5.71846e-06
-5.65572e-06
-5.63705e-06
-5.62157e-06
-5.62157e-06
-5.62157e-06
-5.62157e-06
-5.62157e-06
-5.62157e-06
-5.71295e-06
-5.69906e-06
-5.67607e-06
-5.67011e-06
-5.62157e-06
-5.62157e-06
-5.62157e-06
-5.62157e-06
-5.73765e-06
-5.68463e-06
-5.67867e-06
-5.66824e-06
-5.66107e-06
-5.70181e-06
-5.71684e-06
-5.71846e-06
-5.71297e-06
-5.6847e-06
-5.70383e-06
-5.68712e-06
-5.68289e-06
-5.6557e-06
-5.69903e-06
-5.67867e-06
-5.57896e-06
-5.57882e-06
-5.57281e-06
-5.55456e-06
-5.55222e-06
-5.54928e-06
-5.55447e-06
-5.59348e-06
-5.58565e-06
-5.57281e-06
-5.52687e-06
-5.53899e-06
-5.53899e-06
-5.53899e-06
-5.53899e-06
-5.58753e-06
-5.57844e-06
-5.55457e-06
-5.53899e-06
-5.53899e-06
-5.53899e-06
-5.53899e-06
-5.53899e-06
-5.53899e-06
-5.61927e-06
-5.60455e-06
-5.579e-06
-5.55222e-06
-5.53899e-06
-5.53899e-06
-5.53899e-06
-5.53899e-06
-5.53899e-06
-5.53899e-06
-5.63427e-06
-5.60034e-06
-5.57882e-06
-5.54929e-06
-5.53899e-06
-5.53899e-06
-5.53899e-06
-5.53899e-06
-5.53899e-06
-5.53899e-06
-5.63588e-06
-5.57313e-06
-5.55447e-06
-5.53899e-06
-5.53899e-06
-5.53899e-06
-5.53899e-06
-5.53899e-06
-5.53899e-06
-5.63037e-06
-5.61648e-06
-5.59349e-06
-5.58753e-06
-5.53899e-06
-5.53899e-06
-5.53899e-06
-5.53899e-06
-5.65506e-06
-5.60204e-06
-5.59609e-06
-5.58566e-06
-5.57849e-06
-5.61923e-06
-5.63425e-06
-5.63588e-06
-5.63039e-06
-5.60212e-06
-5.62124e-06
-5.60454e-06
-5.60031e-06
-5.57312e-06
-5.61644e-06
-5.59609e-06
-5.49638e-06
-5.49623e-06
-5.49023e-06
-5.47198e-06
-5.46964e-06
-5.46669e-06
-5.47189e-06
-5.51091e-06
-5.50306e-06
-5.49023e-06
-5.44428e-06
-5.4564e-06
-5.4564e-06
-5.4564e-06
-5.4564e-06
-5.50494e-06
-5.49586e-06
-5.47199e-06
-5.4564e-06
-5.4564e-06
-5.4564e-06
-5.4564e-06
-5.4564e-06
-5.4564e-06
-5.53668e-06
-5.52197e-06
-5.49642e-06
-5.46963e-06
-5.4564e-06
-5.4564e-06
-5.4564e-06
-5.4564e-06
-5.4564e-06
-5.4564e-06
-5.55168e-06
-5.51775e-06
-5.49623e-06
-5.4667e-06
-5.4564e-06
-5.4564e-06
-5.4564e-06
-5.4564e-06
-5.4564e-06
-5.4564e-06
-5.55329e-06
-5.49055e-06
-5.47188e-06
-5.4564e-06
-5.4564e-06
-5.4564e-06
-5.4564e-06
-5.4564e-06
-5.4564e-06
-5.54778e-06
-5.53389e-06
-5.5109e-06
-5.50494e-06
-5.4564e-06
-5.4564e-06
-5.4564e-06
-5.4564e-06
-5.57248e-06
-5.51946e-06
-5.5135e-06
-5.50307e-06
-5.4959e-06
-5.53664e-06
-5.55167e-06
-5.55329e-06
-5.5478e-06
-5.51954e-06
-5.53866e-06
-5.52196e-06
-5.51772e-06
-5.49053e-06
-5.53386e-06
-5.5135e-06
-5.41379e-06
-5.41364e-06
-5.40764e-06
-5.38939e-06
-5.38705e-06
-5.3841e-06
-5.3893e-06
-5.42832e-06
-5.42047e-06
-5.40764e-06
-5.36169e-06
-5.37381e-06
-5.37381e-06
-5.37381e-06
-5.37381e-06
-5.42236e-06
-5.41327e-06
-5.3894e-06
-5.37381e-06
-5.37381e-06
-5.37381e-06
-5.37381e-06
-5.37381e-06
-5.37381e-06
-5.4541e-06
-5.43938e-06
-5.41383e-06
-5.38704e-06
-5.37381e-06
-5.37381e-06
-5.37381e-06
-5.37381e-06
-5.37381e-06
-5.37381e-06
-5.4691e-06
-5.43517e-06
-5.41365e-06
-5.38411e-06
-5.37381e-06
-5.37381e-06
-5.37381e-06
-5.37381e-06
-5.37381e-06
-5.37381e-06
-5.47071e-06
-5.40796e-06
-5.38929e-06
-5.37381e-06
-5.37381e-06
-5.37381e-06
-5.37381e-06
-5.37381e-06
-5.37381e-06
-5.46519e-06
-5.4513e-06
-5.42831e-06
-5.42236e-06
-5.37381e-06
-5.37381e-06
-5.37381e-06
-5.37381e-06
-5.48989e-06
-5.43687e-06
-5.43092e-06
-5.42048e-06
-5.41331e-06
-5.45405e-06
-5.46908e-06
-5.47071e-06
-5.46521e-06
-5.43695e-06
-5.45607e-06
-5.43936e-06
-5.43513e-06
-5.40794e-06
-5.45127e-06
-5.43092e-06
-5.33121e-06
-5.33106e-06
-5.32505e-06
-5.3068e-06
-5.30446e-06
-5.30152e-06
-5.30672e-06
-5.34573e-06
-5.33789e-06
-5.32506e-06
-5.27912e-06
-5.29123e-06
-5.29123e-06
-5.29123e-06
-5.29123e-06
-5.33977e-06
-5.33068e-06
-5.30682e-06
-5.29123e-06
-5.29123e-06
-5.29123e-06
-5.29123e-06
-5.29123e-06
-5.29123e-06
-5.37151e-06
-5.35679e-06
-5.33125e-06
-5.30446e-06
-5.29123e-06
-5.29123e-06
-5.29123e-06
-5.29123e-06
-5.29123e-06
-5.29123e-06
-5.38651e-06
-5.35258e-06
-5.33106e-06
-5.30153e-06
-5.29123e-06
-5.29123e-06
-5.29123e-06
-5.29123e-06
-5.29123e-06
-5.29123e-06
-5.38812e-06
-5.32538e-06
-5.30671e-06
-5.29123e-06
-5.29123e-06
-5.29123e-06
-5.29123e-06
-5.29123e-06
-5.29123e-06
-5.38261e-06
-5.36872e-06
-5.34573e-06
-5.33977e-06
-5.29123e-06
-5.29123e-06
-5.29123e-06
-5.29123e-06
-5.40731e-06
-5.35429e-06
-5.34833e-06
-5.3379e-06
-5.33073e-06
-5.37147e-06
-5.38649e-06
-5.38812e-06
-5.38263e-06
-5.35436e-06
-5.37349e-06
-5.35678e-06
-5.35255e-06
-5.32536e-06
-5.36869e-06
-5.34833e-06
-5.24862e-06
-5.24847e-06
-5.24247e-06
-5.22422e-06
-5.22188e-06
-5.21893e-06
-5.22413e-06
-5.26314e-06
-5.2553e-06
-5.24247e-06
-5.19652e-06
-5.20865e-06
-5.20865e-06
-5.20864e-06
-5.20864e-06
-5.2572e-06
-5.2481e-06
-5.22423e-06
-5.20864e-06
-5.20864e-06
-5.20864e-06
-5.20864e-06
-5.20864e-06
-5.20864e-06
-5.28892e-06
-5.27421e-06
-5.24866e-06
-5.22187e-06
-5.20864e-06