/*--------------------------------*- C++ -*----------------------------------*\
| =========                 |                                                 |
| \\      /  F ield         | OpenFOAM: The Open Source CFD Toolbox           |
|  \\    /   O peration     | Version:  v2012                                 |
|   \\  /    A nd           | Website:  www.openfoam.com                      |
|    \\/     M anipulation  |                                                 |
\*---------------------------------------------------------------------------*/
FoamFile
{
    version     2.0;
    format      ascii;
    class       volScalarField;
    location    "0.075";
    object      p;
}
// * * * * * * * * * * * * * * * * * * * * * * * * * * * * * * * * * * * * * //

dimensions      [0 2 -2 0 0 0 0];


internalField   nonuniform List<scalar> 
189320
(
-4.37822e-06
-4.35773e-06
-4.37844e-06
-4.39208e-06
-4.41569e-06
-4.42173e-06
-4.40698e-06
-4.3988e-06
-4.38487e-06
-4.37842e-06
-4.41471e-06
-4.42015e-06
-4.42883e-06
-4.43055e-06
-4.42496e-06
-4.41795e-06
-4.39584e-06
-4.39204e-06
-4.42016e-06
-4.43225e-06
-4.438e-06
-4.4391e-06
-4.43566e-06
-4.42611e-06
-4.41566e-06
-4.39486e-06
-4.3786e-06
-4.41567e-06
-4.42883e-06
-4.43801e-06
-4.44145e-06
-4.44202e-06
-4.4402e-06
-4.43444e-06
-4.42065e-06
-4.40047e-06
-4.35805e-06
-4.42184e-06
-4.43057e-06
-4.4391e-06
-4.44201e-06
-4.44251e-06
-4.44102e-06
-4.43605e-06
-4.42418e-06
-4.39612e-06
-4.40704e-06
-4.42498e-06
-4.43566e-06
-4.44019e-06
-4.44102e-06
-4.43845e-06
-4.43112e-06
-4.41803e-06
-4.38068e-06
-4.39887e-06
-4.41796e-06
-4.4261e-06
-4.43441e-06
-4.43603e-06
-4.43111e-06
-4.41986e-06
-4.41184e-06
-4.39245e-06
-4.3849e-06
-4.39582e-06
-4.41564e-06
-4.42059e-06
-4.42411e-06
-4.41799e-06
-4.4118e-06
-4.40283e-06
-4.39476e-06
-4.40042e-06
-4.39579e-06
-4.38055e-06
-4.39238e-06
-4.3977e-06
-4.39984e-06
-4.39288e-06
-4.38253e-06
-4.3808e-06
-4.37399e-06
-4.38112e-06
-4.40661e-06
-4.40154e-06
-4.39292e-06
-4.3614e-06
-4.38009e-06
-4.38907e-06
-4.38913e-06
-4.38012e-06
-4.39713e-06
-4.40322e-06
-4.38251e-06
-4.38007e-06
-4.40978e-06
-4.41299e-06
-4.41305e-06
-4.40978e-06
-4.38004e-06
-4.43025e-06
-4.41597e-06
-4.39773e-06
-4.38082e-06
-4.38911e-06
-4.41306e-06
-4.41398e-06
-4.41398e-06
-4.41303e-06
-4.38914e-06
-4.43307e-06
-4.41616e-06
-4.39982e-06
-4.37398e-06
-4.38908e-06
-4.41305e-06
-4.41398e-06
-4.41398e-06
-4.41301e-06
-4.38911e-06
-4.43399e-06
-4.40572e-06
-4.3811e-06
-4.3801e-06
-4.40976e-06
-4.41303e-06
-4.41306e-06
-4.40975e-06
-4.38006e-06
-4.43397e-06
-4.42373e-06
-4.40658e-06
-4.39713e-06
-4.38e-06
-4.38903e-06
-4.38912e-06
-4.38004e-06
-4.46244e-06
-4.42036e-06
-4.40985e-06
-4.4015e-06
-4.40321e-06
-4.43021e-06
-4.43307e-06
-4.43402e-06
-4.43397e-06
-4.42044e-06
-4.42793e-06
-4.41592e-06
-4.41616e-06
-4.40574e-06
-4.42374e-06
-4.40981e-06
-4.35917e-06
-4.36049e-06
-4.35266e-06
-4.34179e-06
-4.33941e-06
-4.33673e-06
-4.34094e-06
-4.366e-06
-4.36072e-06
-4.35267e-06
-4.32162e-06
-4.33599e-06
-4.33801e-06
-4.33805e-06
-4.33601e-06
-4.35979e-06
-4.35791e-06
-4.34179e-06
-4.33597e-06
-4.34817e-06
-4.35036e-06
-4.35044e-06
-4.34816e-06
-4.33597e-06
-4.38726e-06
-4.37689e-06
-4.35914e-06
-4.33938e-06
-4.338e-06
-4.35043e-06
-4.35212e-06
-4.35215e-06
-4.35039e-06
-4.33805e-06
-4.39832e-06
-4.37605e-06
-4.36045e-06
-4.33669e-06
-4.33799e-06
-4.35043e-06
-4.35214e-06
-4.35215e-06
-4.35038e-06
-4.33805e-06
-4.4006e-06
-4.36099e-06
-4.34091e-06
-4.33598e-06
-4.34816e-06
-4.35039e-06
-4.35045e-06
-4.34815e-06
-4.33598e-06
-4.39642e-06
-4.38761e-06
-4.36585e-06
-4.35978e-06
-4.33593e-06
-4.33798e-06
-4.33803e-06
-4.33597e-06
-4.41011e-06
-4.37585e-06
-4.37068e-06
-4.36113e-06
-4.35791e-06
-4.38725e-06
-4.39833e-06
-4.40058e-06
-4.39637e-06
-4.37592e-06
-4.38724e-06
-4.37686e-06
-4.37602e-06
-4.36097e-06
-4.38759e-06
-4.37064e-06
-4.31252e-06
-4.31354e-06
-4.30651e-06
-4.29523e-06
-4.29266e-06
-4.28974e-06
-4.29464e-06
-4.32019e-06
-4.31549e-06
-4.30723e-06
-4.27452e-06
-4.28975e-06
-4.29021e-06
-4.29022e-06
-4.28975e-06
-4.31455e-06
-4.31243e-06
-4.29516e-06
-4.28974e-06
-4.29377e-06
-4.29476e-06
-4.2948e-06
-4.29377e-06
-4.28973e-06
-4.34015e-06
-4.33083e-06
-4.31247e-06
-4.29258e-06
-4.29018e-06
-4.29479e-06
-4.29579e-06
-4.29581e-06
-4.29479e-06
-4.29022e-06
-4.35144e-06
-4.32918e-06
-4.3135e-06
-4.28971e-06
-4.29019e-06
-4.29481e-06
-4.29582e-06
-4.29582e-06
-4.29478e-06
-4.29021e-06
-4.3523e-06
-4.31331e-06
-4.29462e-06
-4.28973e-06
-4.29377e-06
-4.29478e-06
-4.29481e-06
-4.29377e-06
-4.28975e-06
-4.3485e-06
-4.34111e-06
-4.32006e-06
-4.31456e-06
-4.28972e-06
-4.29017e-06
-4.2902e-06
-4.28975e-06
-4.365e-06
-4.32927e-06
-4.32478e-06
-4.31602e-06
-4.31249e-06
-4.34014e-06
-4.35142e-06
-4.3523e-06
-4.34855e-06
-4.32938e-06
-4.34239e-06
-4.33077e-06
-4.32915e-06
-4.31332e-06
-4.34115e-06
-4.32494e-06
-4.26484e-06
-4.26579e-06
-4.25995e-06
-4.24744e-06
-4.24446e-06
-4.2416e-06
-4.24695e-06
-4.27264e-06
-4.26875e-06
-4.2592e-06
-4.22634e-06
-4.24203e-06
-4.24217e-06
-4.24218e-06
-4.24204e-06
-4.26715e-06
-4.26527e-06
-4.24747e-06
-4.24203e-06
-4.24349e-06
-4.24374e-06
-4.24376e-06
-4.24349e-06
-4.24204e-06
-4.29231e-06
-4.28331e-06
-4.26479e-06
-4.2447e-06
-4.24217e-06
-4.24375e-06
-4.24405e-06
-4.24406e-06
-4.24375e-06
-4.24219e-06
-4.30318e-06
-4.2814e-06
-4.26577e-06
-4.24162e-06
-4.24217e-06
-4.24375e-06
-4.24406e-06
-4.24407e-06
-4.24374e-06
-4.24218e-06
-4.30405e-06
-4.26548e-06
-4.24695e-06
-4.24203e-06
-4.24349e-06
-4.24375e-06
-4.24377e-06
-4.24349e-06
-4.24204e-06
-4.30027e-06
-4.29354e-06
-4.27263e-06
-4.26715e-06
-4.24203e-06
-4.24217e-06
-4.24218e-06
-4.24204e-06
-4.31785e-06
-4.28171e-06
-4.27749e-06
-4.26869e-06
-4.26525e-06
-4.29232e-06
-4.30325e-06
-4.30405e-06
-4.30025e-06
-4.28176e-06
-4.29538e-06
-4.28333e-06
-4.28141e-06
-4.26549e-06
-4.29352e-06
-4.27741e-06
-4.21678e-06
-4.21773e-06
-4.21203e-06
-4.19933e-06
-4.19628e-06
-4.19319e-06
-4.1988e-06
-4.22466e-06
-4.22085e-06
-4.21191e-06
-4.17799e-06
-4.19383e-06
-4.19387e-06
-4.19387e-06
-4.19384e-06
-4.21911e-06
-4.21735e-06
-4.19934e-06
-4.19384e-06
-4.19439e-06
-4.1945e-06
-4.1945e-06
-4.1944e-06
-4.19385e-06
-4.24419e-06
-4.2353e-06
-4.21673e-06
-4.19648e-06
-4.19387e-06
-4.1945e-06
-4.19459e-06
-4.19459e-06
-4.1945e-06
-4.19387e-06
-4.25492e-06
-4.23331e-06
-4.21771e-06
-4.19321e-06
-4.19387e-06
-4.19449e-06
-4.19459e-06
-4.19458e-06
-4.19449e-06
-4.19387e-06
-4.25572e-06
-4.21741e-06
-4.1988e-06
-4.19385e-06
-4.1944e-06
-4.1945e-06
-4.1945e-06
-4.19439e-06
-4.19385e-06
-4.25196e-06
-4.24547e-06
-4.22474e-06
-4.2191e-06
-4.19384e-06
-4.19388e-06
-4.19389e-06
-4.19385e-06
-4.27001e-06
-4.23368e-06
-4.2294e-06
-4.22043e-06
-4.21732e-06
-4.24416e-06
-4.25493e-06
-4.2557e-06
-4.25196e-06
-4.23374e-06
-4.24764e-06
-4.23527e-06
-4.23328e-06
-4.2174e-06
-4.24546e-06
-4.22943e-06
-4.16851e-06
-4.16946e-06
-4.16389e-06
-4.15105e-06
-4.14812e-06
-4.14491e-06
-4.15055e-06
-4.17642e-06
-4.17268e-06
-4.16375e-06
-4.12962e-06
-4.14555e-06
-4.14554e-06
-4.14554e-06
-4.14554e-06
-4.17085e-06
-4.16916e-06
-4.15106e-06
-4.14554e-06
-4.14574e-06
-4.14578e-06
-4.14578e-06
-4.14573e-06
-4.14552e-06
-4.19591e-06
-4.18705e-06
-4.16848e-06
-4.14815e-06
-4.14553e-06
-4.14578e-06
-4.14582e-06
-4.14581e-06
-4.14578e-06
-4.14553e-06
-4.20658e-06
-4.18504e-06
-4.16946e-06
-4.14491e-06
-4.14553e-06
-4.14578e-06
-4.14582e-06
-4.14581e-06
-4.14578e-06
-4.14553e-06
-4.20728e-06
-4.16914e-06
-4.15056e-06
-4.14553e-06
-4.14574e-06
-4.14578e-06
-4.14577e-06
-4.14573e-06
-4.14552e-06
-4.20358e-06
-4.19726e-06
-4.17651e-06
-4.17084e-06
-4.14553e-06
-4.14553e-06
-4.14554e-06
-4.14553e-06
-4.22186e-06
-4.18544e-06
-4.18117e-06
-4.17224e-06
-4.16914e-06
-4.19592e-06
-4.2066e-06
-4.20735e-06
-4.20366e-06
-4.18551e-06
-4.19948e-06
-4.18706e-06
-4.18506e-06
-4.16915e-06
-4.19727e-06
-4.1812e-06
-4.12018e-06
-4.12113e-06
-4.11562e-06
-4.10271e-06
-4.09974e-06
-4.09651e-06
-4.10221e-06
-4.12808e-06
-4.12442e-06
-4.11547e-06
-4.08121e-06
-4.09717e-06
-4.09719e-06
-4.09719e-06
-4.09718e-06
-4.12251e-06
-4.12087e-06
-4.10272e-06
-4.09719e-06
-4.09726e-06
-4.09727e-06
-4.09727e-06
-4.09724e-06
-4.09718e-06
-4.14756e-06
-4.13875e-06
-4.12016e-06
-4.09977e-06
-4.09719e-06
-4.09727e-06
-4.09729e-06
-4.09729e-06
-4.09726e-06
-4.09718e-06
-4.15809e-06
-4.1367e-06
-4.12113e-06
-4.09651e-06
-4.09719e-06
-4.09727e-06
-4.09729e-06
-4.09729e-06
-4.09726e-06
-4.09718e-06
-4.15887e-06
-4.1208e-06
-4.10222e-06
-4.09718e-06
-4.09725e-06
-4.09726e-06
-4.09727e-06
-4.09725e-06
-4.09718e-06
-4.15519e-06
-4.14892e-06
-4.12819e-06
-4.12251e-06
-4.09718e-06
-4.09719e-06
-4.09718e-06
-4.09718e-06
-4.17361e-06
-4.13715e-06
-4.13286e-06
-4.12397e-06
-4.12084e-06
-4.14757e-06
-4.15819e-06
-4.15895e-06
-4.15527e-06
-4.1372e-06
-4.15119e-06
-4.13874e-06
-4.13671e-06
-4.1208e-06
-4.14892e-06
-4.13289e-06
-4.07183e-06
-4.07278e-06
-4.06728e-06
-4.05436e-06
-4.05138e-06
-4.04813e-06
-4.05385e-06
-4.07974e-06
-4.07607e-06
-4.06711e-06
-4.03284e-06
-4.04882e-06
-4.04881e-06
-4.04881e-06
-4.04881e-06
-4.07416e-06
-4.07253e-06
-4.05437e-06
-4.04881e-06
-4.04886e-06
-4.04887e-06
-4.04886e-06
-4.04886e-06
-4.04882e-06
-4.09923e-06
-4.09041e-06
-4.07181e-06
-4.05141e-06
-4.04882e-06
-4.04887e-06
-4.04887e-06
-4.04887e-06
-4.04886e-06
-4.04883e-06
-4.10976e-06
-4.08837e-06
-4.07278e-06
-4.04815e-06
-4.04882e-06
-4.04887e-06
-4.04887e-06
-4.04887e-06
-4.04887e-06
-4.04882e-06
-4.11052e-06
-4.07247e-06
-4.05386e-06
-4.04882e-06
-4.04886e-06
-4.04887e-06
-4.04887e-06
-4.04886e-06
-4.04882e-06
-4.10685e-06
-4.10058e-06
-4.07984e-06
-4.07417e-06
-4.04881e-06
-4.04881e-06
-4.04882e-06
-4.04881e-06
-4.12528e-06
-4.0888e-06
-4.08451e-06
-4.07562e-06
-4.0725e-06
-4.09924e-06
-4.10984e-06
-4.1106e-06
-4.10693e-06
-4.08887e-06
-4.10287e-06
-4.0904e-06
-4.08837e-06
-4.07246e-06
-4.10058e-06
-4.08455e-06
-4.02348e-06
-4.02443e-06
-4.01892e-06
-4.006e-06
-4.00302e-06
-3.99976e-06
-4.0055e-06
-4.0314e-06
-4.02772e-06
-4.01877e-06
-3.98447e-06
-4.00046e-06
-4.00046e-06
-4.00046e-06
-4.00046e-06
-4.02582e-06
-4.02419e-06
-4.006e-06
-4.00046e-06
-4.00047e-06
-4.00047e-06
-4.00047e-06
-4.00047e-06
-4.00046e-06
-4.05087e-06
-4.04206e-06
-4.02346e-06
-4.00305e-06
-4.00046e-06
-4.00047e-06
-4.00048e-06
-4.00048e-06
-4.00048e-06
-4.00046e-06
-4.0614e-06
-4.04002e-06
-4.02443e-06
-3.99977e-06
-4.00046e-06
-4.00048e-06
-4.00048e-06
-4.00048e-06
-4.00048e-06
-4.00047e-06
-4.06216e-06
-4.02413e-06
-4.0055e-06
-4.00045e-06
-4.00047e-06
-4.00047e-06
-4.00047e-06
-4.00047e-06
-4.00045e-06
-4.05849e-06
-4.05224e-06
-4.03149e-06
-4.02582e-06
-4.00046e-06
-4.00046e-06
-4.00046e-06
-4.00046e-06
-4.07694e-06
-4.04046e-06
-4.03617e-06
-4.02726e-06
-4.02415e-06
-4.05088e-06
-4.06149e-06
-4.06224e-06
-4.05857e-06
-4.04052e-06
-4.05453e-06
-4.04205e-06
-4.04002e-06
-4.02412e-06
-4.05223e-06
-4.0362e-06
-3.97511e-06
-3.97606e-06
-3.97054e-06
-3.95764e-06
-3.95465e-06
-3.95139e-06
-3.95713e-06
-3.98303e-06
-3.97936e-06
-3.97042e-06
-3.93611e-06
-3.9521e-06
-3.9521e-06
-3.9521e-06
-3.9521e-06
-3.97745e-06
-3.97582e-06
-3.95765e-06
-3.9521e-06
-3.9521e-06
-3.9521e-06
-3.9521e-06
-3.9521e-06
-3.9521e-06
-4.0025e-06
-3.9937e-06
-3.97509e-06
-3.95468e-06
-3.9521e-06
-3.9521e-06
-3.9521e-06
-3.9521e-06
-3.9521e-06
-3.9521e-06
-4.01302e-06
-3.99166e-06
-3.97607e-06
-3.9514e-06
-3.9521e-06
-3.9521e-06
-3.9521e-06
-3.9521e-06
-3.9521e-06
-3.9521e-06
-4.01379e-06
-3.97577e-06
-3.95714e-06
-3.9521e-06
-3.9521e-06
-3.9521e-06
-3.9521e-06
-3.9521e-06
-3.9521e-06
-4.01011e-06
-4.00387e-06
-3.98313e-06
-3.97745e-06
-3.9521e-06
-3.9521e-06
-3.9521e-06
-3.9521e-06
-4.02857e-06
-3.99209e-06
-3.9878e-06
-3.97891e-06
-3.97579e-06
-4.00251e-06
-4.01312e-06
-4.01386e-06
-4.0102e-06
-3.99215e-06
-4.00616e-06
-3.99369e-06
-3.99166e-06
-3.97575e-06
-4.00387e-06
-3.98784e-06
-3.92676e-06
-3.9277e-06
-3.9215e-06
-3.9093e-06
-3.9063e-06
-3.90304e-06
-3.90877e-06
-3.93466e-06
-3.93101e-06
-3.92203e-06
-3.88773e-06
-3.90374e-06
-3.90373e-06
-3.90373e-06
-3.90374e-06
-3.92909e-06
-3.92746e-06
-3.90928e-06
-3.90374e-06
-3.90374e-06
-3.90374e-06
-3.90374e-06
-3.90374e-06
-3.90374e-06
-3.95414e-06
-3.94534e-06
-3.92673e-06
-3.90632e-06
-3.90374e-06
-3.90374e-06
-3.90374e-06
-3.90374e-06
-3.90374e-06
-3.90374e-06
-3.96466e-06
-3.94329e-06
-3.92771e-06
-3.90305e-06
-3.90374e-06
-3.90374e-06
-3.90374e-06
-3.90374e-06
-3.90374e-06
-3.90374e-06
-3.96543e-06
-3.9274e-06
-3.90878e-06
-3.90374e-06
-3.90374e-06
-3.90374e-06
-3.90374e-06
-3.90374e-06
-3.90374e-06
-3.96176e-06
-3.95551e-06
-3.93477e-06
-3.92909e-06
-3.90374e-06
-3.90374e-06
-3.90374e-06
-3.90374e-06
-3.98022e-06
-3.94373e-06
-3.93944e-06
-3.93055e-06
-3.92744e-06
-3.95416e-06
-3.96476e-06
-3.9655e-06
-3.96184e-06
-3.9438e-06
-3.95781e-06
-3.94533e-06
-3.94329e-06
-3.92739e-06
-3.95551e-06
-3.93948e-06
-3.87839e-06
-3.87934e-06
-3.87336e-06
-3.86093e-06
-3.85793e-06
-3.85468e-06
-3.86041e-06
-3.88629e-06
-3.88265e-06
-3.87367e-06
-3.83937e-06
-3.85537e-06
-3.85537e-06
-3.85537e-06
-3.85537e-06
-3.88072e-06
-3.8791e-06
-3.86092e-06
-3.85538e-06
-3.85538e-06
-3.85538e-06
-3.85538e-06
-3.85538e-06
-3.85537e-06
-3.90578e-06
-3.89698e-06
-3.87837e-06
-3.85796e-06
-3.85538e-06
-3.85538e-06
-3.85538e-06
-3.85538e-06
-3.85538e-06
-3.85537e-06
-3.9163e-06
-3.89493e-06
-3.87935e-06
-3.85468e-06
-3.85538e-06
-3.85538e-06
-3.85538e-06
-3.85538e-06
-3.85538e-06
-3.85537e-06
-3.91707e-06
-3.87904e-06
-3.86042e-06
-3.85538e-06
-3.85538e-06
-3.85538e-06
-3.85538e-06
-3.85538e-06
-3.85538e-06
-3.9134e-06
-3.90715e-06
-3.88641e-06
-3.88073e-06
-3.85538e-06
-3.85537e-06
-3.85537e-06
-3.85538e-06
-3.93186e-06
-3.89537e-06
-3.89108e-06
-3.88219e-06
-3.87908e-06
-3.9058e-06
-3.9164e-06
-3.91715e-06
-3.91349e-06
-3.89544e-06
-3.90945e-06
-3.89697e-06
-3.89493e-06
-3.87903e-06
-3.90715e-06
-3.89112e-06
-3.83004e-06
-3.83098e-06
-3.82479e-06
-3.81258e-06
-3.80958e-06
-3.80632e-06
-3.81205e-06
-3.83794e-06
-3.8343e-06
-3.82531e-06
-3.791e-06
-3.80702e-06
-3.80702e-06
-3.80702e-06
-3.80702e-06
-3.83236e-06
-3.83074e-06
-3.81256e-06
-3.80702e-06
-3.80702e-06
-3.80702e-06
-3.80702e-06
-3.80702e-06
-3.80702e-06
-3.85742e-06
-3.84862e-06
-3.83001e-06
-3.8096e-06
-3.80702e-06
-3.80702e-06
-3.80702e-06
-3.80702e-06
-3.80702e-06
-3.80702e-06
-3.86794e-06
-3.84657e-06
-3.83099e-06
-3.80632e-06
-3.80702e-06
-3.80702e-06
-3.80702e-06
-3.80702e-06
-3.80702e-06
-3.80702e-06
-3.86871e-06
-3.83069e-06
-3.81206e-06
-3.80702e-06
-3.80702e-06
-3.80702e-06
-3.80702e-06
-3.80702e-06
-3.80702e-06
-3.86504e-06
-3.85879e-06
-3.83805e-06
-3.83237e-06
-3.80702e-06
-3.80702e-06
-3.80702e-06
-3.80702e-06
-3.8835e-06
-3.84701e-06
-3.84272e-06
-3.83383e-06
-3.83072e-06
-3.85743e-06
-3.86803e-06
-3.86878e-06
-3.86512e-06
-3.84708e-06
-3.86109e-06
-3.84861e-06
-3.84658e-06
-3.83067e-06
-3.85879e-06
-3.84276e-06
-3.78168e-06
-3.78262e-06
-3.77643e-06
-3.76422e-06
-3.76122e-06
-3.75796e-06
-3.76369e-06
-3.78955e-06
-3.78604e-06
-3.77695e-06
-3.74264e-06
-3.75865e-06
-3.75865e-06
-3.75865e-06
-3.75865e-06
-3.784e-06
-3.78239e-06
-3.7642e-06
-3.75866e-06
-3.75866e-06
-3.75866e-06
-3.75866e-06
-3.75866e-06
-3.75866e-06
-3.80907e-06
-3.80026e-06
-3.78165e-06
-3.76124e-06
-3.75866e-06
-3.75866e-06
-3.75866e-06
-3.75866e-06
-3.75866e-06
-3.75866e-06
-3.81958e-06
-3.79822e-06
-3.78262e-06
-3.75796e-06
-3.75866e-06
-3.75866e-06
-3.75866e-06
-3.75866e-06
-3.75866e-06
-3.75866e-06
-3.82035e-06
-3.78233e-06
-3.7637e-06
-3.75866e-06
-3.75866e-06
-3.75866e-06
-3.75866e-06
-3.75866e-06
-3.75866e-06
-3.81668e-06
-3.81043e-06
-3.78969e-06
-3.78401e-06
-3.75866e-06
-3.75866e-06
-3.75866e-06
-3.75866e-06
-3.83514e-06
-3.79865e-06
-3.79436e-06
-3.78547e-06
-3.78236e-06
-3.80907e-06
-3.81967e-06
-3.82042e-06
-3.81676e-06
-3.79872e-06
-3.81273e-06
-3.80025e-06
-3.79822e-06
-3.78231e-06
-3.81043e-06
-3.7944e-06
-3.73332e-06
-3.73426e-06
-3.72807e-06
-3.71586e-06
-3.71286e-06
-3.7096e-06
-3.71533e-06
-3.74122e-06
-3.73758e-06
-3.72858e-06
-3.69428e-06
-3.71029e-06
-3.71029e-06
-3.71029e-06
-3.71029e-06
-3.73564e-06
-3.73402e-06
-3.71584e-06
-3.71029e-06
-3.71029e-06
-3.71029e-06
-3.71029e-06
-3.71029e-06
-3.71029e-06
-3.7607e-06
-3.7519e-06
-3.73329e-06
-3.71288e-06
-3.71029e-06
-3.71029e-06
-3.71029e-06
-3.71029e-06
-3.71029e-06
-3.71029e-06
-3.77122e-06
-3.74985e-06
-3.73426e-06
-3.7096e-06
-3.71029e-06
-3.71029e-06
-3.71029e-06
-3.71029e-06
-3.71029e-06
-3.71029e-06
-3.77198e-06
-3.73396e-06
-3.71534e-06
-3.71029e-06
-3.71029e-06
-3.71029e-06
-3.71029e-06
-3.71029e-06
-3.71029e-06
-3.76832e-06
-3.76207e-06
-3.74132e-06
-3.73565e-06
-3.71029e-06
-3.71029e-06
-3.71029e-06
-3.71029e-06
-3.78678e-06
-3.75029e-06
-3.746e-06
-3.73711e-06
-3.734e-06
-3.76071e-06
-3.7713e-06
-3.77206e-06
-3.7684e-06
-3.75035e-06
-3.76436e-06
-3.75189e-06
-3.74986e-06
-3.73395e-06
-3.76207e-06
-3.74604e-06
-3.68495e-06
-3.6859e-06
-3.67971e-06
-3.6675e-06
-3.66449e-06
-3.66123e-06
-3.66697e-06
-3.69285e-06
-3.68922e-06
-3.68022e-06
-3.64592e-06
-3.66193e-06
-3.66193e-06
-3.66193e-06
-3.66193e-06
-3.68728e-06
-3.68566e-06
-3.66748e-06
-3.66193e-06
-3.66193e-06
-3.66193e-06
-3.66193e-06
-3.66193e-06
-3.66193e-06
-3.71234e-06
-3.70354e-06
-3.68493e-06
-3.66452e-06
-3.66193e-06
-3.66193e-06
-3.66193e-06
-3.66193e-06
-3.66193e-06
-3.66193e-06
-3.72286e-06
-3.70149e-06
-3.6859e-06
-3.66124e-06
-3.66193e-06
-3.66193e-06
-3.66193e-06
-3.66193e-06
-3.66193e-06
-3.66193e-06
-3.72362e-06
-3.6856e-06
-3.66698e-06
-3.66193e-06
-3.66193e-06
-3.66193e-06
-3.66193e-06
-3.66193e-06
-3.66193e-06
-3.71995e-06
-3.71371e-06
-3.69296e-06
-3.68729e-06
-3.66193e-06
-3.66193e-06
-3.66193e-06
-3.66193e-06
-3.73841e-06
-3.70193e-06
-3.69764e-06
-3.68875e-06
-3.68563e-06
-3.71235e-06
-3.72295e-06
-3.72371e-06
-3.72005e-06
-3.70199e-06
-3.716e-06
-3.70353e-06
-3.7015e-06
-3.68559e-06
-3.71371e-06
-3.69767e-06
-3.63659e-06
-3.63754e-06
-3.63135e-06
-3.61913e-06
-3.61613e-06
-3.61287e-06
-3.61861e-06
-3.6445e-06
-3.64085e-06
-3.63186e-06
-3.59756e-06
-3.61357e-06
-3.61357e-06
-3.61357e-06
-3.61357e-06
-3.63891e-06
-3.63729e-06
-3.61911e-06
-3.61357e-06
-3.61357e-06
-3.61357e-06
-3.61357e-06
-3.61357e-06
-3.61357e-06
-3.66398e-06
-3.65517e-06
-3.63657e-06
-3.61616e-06
-3.61357e-06
-3.61357e-06
-3.61357e-06
-3.61357e-06
-3.61357e-06
-3.61357e-06
-3.6745e-06
-3.65313e-06
-3.63754e-06
-3.61288e-06
-3.61357e-06
-3.61357e-06
-3.61357e-06
-3.61357e-06
-3.61357e-06
-3.61357e-06
-3.67526e-06
-3.63724e-06
-3.61862e-06
-3.61357e-06
-3.61357e-06
-3.61357e-06
-3.61357e-06
-3.61357e-06
-3.61357e-06
-3.67159e-06
-3.66534e-06
-3.6446e-06
-3.63893e-06
-3.61357e-06
-3.61357e-06
-3.61357e-06
-3.61357e-06
-3.69005e-06
-3.65357e-06
-3.64928e-06
-3.64039e-06
-3.63727e-06
-3.66399e-06
-3.67459e-06
-3.67534e-06
-3.67168e-06
-3.65363e-06
-3.66764e-06
-3.65517e-06
-3.65314e-06
-3.63723e-06
-3.66535e-06
-3.64931e-06
-3.58823e-06
-3.58918e-06
-3.58298e-06
-3.57077e-06
-3.56777e-06
-3.56451e-06
-3.57024e-06
-3.59613e-06
-3.59248e-06
-3.5835e-06
-3.5492e-06
-3.56521e-06
-3.56521e-06
-3.56521e-06
-3.56521e-06
-3.59055e-06
-3.58893e-06
-3.57075e-06
-3.56521e-06
-3.56521e-06
-3.56521e-06
-3.56521e-06
-3.56521e-06
-3.56521e-06
-3.61562e-06
-3.60681e-06
-3.5882e-06
-3.56779e-06
-3.56521e-06
-3.56521e-06
-3.56521e-06
-3.56521e-06
-3.56521e-06
-3.56521e-06
-3.62613e-06
-3.60477e-06
-3.58918e-06
-3.56451e-06
-3.56521e-06
-3.56521e-06
-3.56521e-06
-3.56521e-06
-3.56521e-06
-3.56521e-06
-3.6269e-06
-3.58888e-06
-3.57025e-06
-3.56521e-06
-3.56521e-06
-3.56521e-06
-3.56521e-06
-3.56521e-06
-3.56521e-06
-3.62323e-06
-3.61698e-06
-3.59624e-06
-3.59056e-06
-3.56521e-06
-3.56521e-06
-3.56521e-06
-3.56521e-06
-3.64169e-06
-3.6052e-06
-3.60091e-06
-3.59203e-06
-3.58891e-06
-3.61563e-06
-3.62622e-06
-3.62698e-06
-3.62332e-06
-3.60527e-06
-3.61928e-06
-3.60681e-06
-3.60477e-06
-3.58888e-06
-3.61698e-06
-3.60095e-06
-3.53987e-06
-3.54082e-06
-3.53461e-06
-3.52241e-06
-3.51941e-06
-3.51615e-06
-3.52188e-06
-3.54778e-06
-3.54411e-06
-3.53514e-06
-3.50084e-06
-3.51685e-06
-3.51685e-06
-3.51685e-06
-3.51685e-06
-3.54219e-06
-3.54057e-06
-3.52239e-06
-3.51685e-06
-3.51685e-06
-3.51685e-06
-3.51685e-06
-3.51685e-06
-3.51685e-06
-3.56726e-06
-3.55845e-06
-3.53984e-06
-3.51943e-06
-3.51685e-06
-3.51685e-06
-3.51685e-06
-3.51685e-06
-3.51685e-06
-3.51685e-06
-3.57777e-06
-3.5564e-06
-3.54081e-06
-3.51615e-06
-3.51685e-06
-3.51685e-06
-3.51685e-06
-3.51685e-06
-3.51685e-06
-3.51685e-06
-3.57854e-06
-3.54051e-06
-3.52189e-06
-3.51685e-06
-3.51685e-06
-3.51685e-06
-3.51685e-06
-3.51685e-06
-3.51685e-06
-3.57487e-06
-3.56862e-06
-3.54788e-06
-3.5422e-06
-3.51685e-06
-3.51685e-06
-3.51685e-06
-3.51685e-06
-3.59333e-06
-3.55684e-06
-3.55255e-06
-3.54366e-06
-3.54055e-06
-3.56727e-06
-3.57786e-06
-3.57862e-06
-3.57496e-06
-3.55691e-06
-3.57092e-06
-3.55844e-06
-3.55641e-06
-3.54051e-06
-3.56862e-06
-3.55259e-06
-3.49151e-06
-3.49246e-06
-3.48625e-06
-3.47405e-06
-3.47105e-06
-3.46779e-06
-3.47352e-06
-3.49942e-06
-3.49576e-06
-3.48678e-06
-3.45248e-06
-3.46849e-06
-3.46849e-06
-3.46849e-06
-3.46849e-06
-3.49383e-06
-3.49221e-06
-3.47403e-06
-3.46849e-06
-3.46849e-06
-3.46849e-06
-3.46849e-06
-3.46849e-06
-3.46849e-06
-3.51889e-06
-3.51009e-06
-3.49148e-06
-3.47107e-06
-3.46849e-06
-3.46849e-06
-3.46849e-06
-3.46849e-06
-3.46849e-06
-3.46849e-06
-3.52941e-06
-3.50804e-06
-3.49245e-06
-3.46779e-06
-3.46849e-06
-3.46849e-06
-3.46849e-06
-3.46849e-06
-3.46849e-06
-3.46849e-06
-3.53018e-06
-3.49215e-06
-3.47353e-06
-3.46849e-06
-3.46849e-06
-3.46849e-06
-3.46848e-06
-3.46849e-06
-3.46849e-06
-3.52651e-06
-3.52026e-06
-3.49952e-06
-3.49384e-06
-3.46849e-06
-3.46849e-06
-3.46849e-06
-3.46849e-06
-3.54497e-06
-3.50848e-06
-3.50419e-06
-3.4953e-06
-3.49219e-06
-3.5189e-06
-3.5295e-06
-3.53025e-06
-3.52659e-06
-3.50854e-06
-3.52256e-06
-3.51008e-06
-3.50805e-06
-3.49214e-06
-3.52026e-06
-3.50423e-06
-3.44315e-06
-3.44409e-06
-3.43789e-06
-3.42569e-06
-3.42269e-06
-3.41943e-06
-3.42516e-06
-3.45105e-06
-3.4474e-06
-3.43841e-06
-3.40411e-06
-3.42012e-06
-3.42012e-06
-3.42012e-06
-3.42012e-06
-3.44547e-06
-3.44385e-06
-3.42567e-06
-3.42012e-06
-3.42012e-06
-3.42012e-06
-3.42012e-06
-3.42012e-06
-3.42012e-06
-3.47053e-06
-3.46173e-06
-3.44312e-06
-3.42271e-06
-3.42012e-06
-3.42012e-06
-3.42012e-06
-3.42012e-06
-3.42012e-06
-3.42012e-06
-3.48105e-06
-3.45968e-06
-3.44409e-06
-3.41943e-06
-3.42012e-06
-3.42012e-06
-3.42012e-06
-3.42012e-06
-3.42012e-06
-3.42012e-06
-3.48181e-06
-3.44379e-06
-3.42517e-06
-3.42012e-06
-3.42012e-06
-3.42012e-06
-3.42012e-06
-3.42012e-06
-3.42012e-06
-3.47815e-06
-3.4719e-06
-3.45115e-06
-3.44548e-06
-3.42012e-06
-3.42012e-06
-3.42012e-06
-3.42012e-06
-3.49661e-06
-3.46012e-06
-3.45583e-06
-3.44694e-06
-3.44382e-06
-3.47054e-06
-3.48114e-06
-3.48189e-06
-3.47822e-06
-3.46018e-06
-3.47419e-06
-3.46172e-06
-3.45969e-06
-3.44378e-06
-3.4719e-06
-3.45586e-06
-3.39479e-06
-3.39573e-06
-3.38953e-06
-3.37733e-06
-3.37433e-06
-3.37106e-06
-3.3768e-06
-3.40269e-06
-3.39903e-06
-3.39005e-06
-3.35575e-06
-3.37176e-06
-3.37176e-06
-3.37176e-06
-3.37176e-06
-3.39711e-06
-3.39549e-06
-3.37731e-06
-3.37176e-06
-3.37176e-06
-3.37176e-06
-3.37176e-06
-3.37176e-06
-3.37176e-06
-3.42217e-06
-3.41336e-06
-3.39476e-06
-3.37435e-06
-3.37176e-06
-3.37176e-06
-3.37176e-06
-3.37176e-06
-3.37176e-06
-3.37176e-06
-3.43269e-06
-3.41132e-06
-3.39573e-06
-3.37107e-06
-3.37176e-06
-3.37176e-06
-3.37176e-06
-3.37176e-06
-3.37176e-06
-3.37176e-06
-3.43345e-06
-3.39543e-06
-3.37681e-06
-3.37176e-06
-3.37176e-06
-3.37176e-06
-3.37176e-06
-3.37176e-06
-3.37176e-06
-3.42978e-06
-3.42354e-06
-3.40279e-06
-3.39712e-06
-3.37176e-06
-3.37176e-06
-3.37176e-06
-3.37176e-06
-3.44824e-06
-3.41176e-06
-3.40747e-06
-3.39858e-06
-3.39546e-06
-3.42218e-06
-3.43278e-06
-3.43352e-06
-3.42986e-06
-3.41182e-06
-3.42583e-06
-3.41336e-06
-3.41133e-06
-3.39542e-06
-3.42354e-06
-3.4075e-06
-3.34642e-06
-3.34737e-06
-3.34115e-06
-3.32896e-06
-3.32596e-06
-3.3227e-06
-3.32844e-06
-3.35433e-06
-3.35068e-06
-3.34169e-06
-3.30739e-06
-3.3234e-06
-3.3234e-06
-3.3234e-06
-3.3234e-06
-3.34875e-06
-3.34713e-06
-3.32894e-06
-3.3234e-06
-3.3234e-06
-3.3234e-06
-3.3234e-06
-3.3234e-06
-3.3234e-06
-3.37381e-06
-3.365e-06
-3.3464e-06
-3.32599e-06
-3.3234e-06
-3.3234e-06
-3.3234e-06
-3.3234e-06
-3.3234e-06
-3.3234e-06
-3.38433e-06
-3.36296e-06
-3.34737e-06
-3.32271e-06
-3.3234e-06
-3.3234e-06
-3.3234e-06
-3.3234e-06
-3.3234e-06
-3.3234e-06
-3.38509e-06
-3.34707e-06
-3.32845e-06
-3.3234e-06
-3.3234e-06
-3.3234e-06
-3.3234e-06
-3.3234e-06
-3.3234e-06
-3.38142e-06
-3.37518e-06
-3.35443e-06
-3.34876e-06
-3.3234e-06
-3.3234e-06
-3.3234e-06
-3.3234e-06
-3.39988e-06
-3.3634e-06
-3.35911e-06
-3.35022e-06
-3.3471e-06
-3.37382e-06
-3.38442e-06
-3.38516e-06
-3.3815e-06
-3.36346e-06
-3.37747e-06
-3.365e-06
-3.36297e-06
-3.34706e-06
-3.37517e-06
-3.35914e-06
-3.29807e-06
-3.29901e-06
-3.29279e-06
-3.2806e-06
-3.2776e-06
-3.27434e-06
-3.28008e-06
-3.30597e-06
-3.30231e-06
-3.29333e-06
-3.25903e-06
-3.27504e-06
-3.27504e-06
-3.27504e-06
-3.27504e-06
-3.30039e-06
-3.29877e-06
-3.28059e-06
-3.27504e-06
-3.27504e-06
-3.27504e-06
-3.27504e-06
-3.27504e-06
-3.27504e-06
-3.32545e-06
-3.31664e-06
-3.29804e-06
-3.27763e-06
-3.27504e-06
-3.27504e-06
-3.27504e-06
-3.27504e-06
-3.27504e-06
-3.27504e-06
-3.33597e-06
-3.3146e-06
-3.29901e-06
-3.27435e-06
-3.27504e-06
-3.27504e-06
-3.27504e-06
-3.27504e-06
-3.27504e-06
-3.27504e-06
-3.33673e-06
-3.29871e-06
-3.28009e-06
-3.27504e-06
-3.27504e-06
-3.27504e-06
-3.27504e-06
-3.27504e-06
-3.27504e-06
-3.33306e-06
-3.32682e-06
-3.30607e-06
-3.3004e-06
-3.27504e-06
-3.27504e-06
-3.27504e-06
-3.27504e-06
-3.35153e-06
-3.31504e-06
-3.31075e-06
-3.30186e-06
-3.29874e-06
-3.32546e-06
-3.33606e-06
-3.3368e-06
-3.33314e-06
-3.3151e-06
-3.32911e-06
-3.31664e-06
-3.31461e-06
-3.2987e-06
-3.32681e-06
-3.31078e-06
-3.24971e-06
-3.25065e-06
-3.24443e-06
-3.23224e-06
-3.22925e-06
-3.22599e-06
-3.23173e-06
-3.25761e-06
-3.25395e-06
-3.24497e-06
-3.21067e-06
-3.22668e-06
-3.22668e-06
-3.22668e-06
-3.22668e-06
-3.25203e-06
-3.25041e-06
-3.23223e-06
-3.22668e-06
-3.22668e-06
-3.22668e-06
-3.22668e-06
-3.22668e-06
-3.22668e-06
-3.27709e-06
-3.26828e-06
-3.24968e-06
-3.22927e-06
-3.22668e-06
-3.22668e-06
-3.22668e-06
-3.22668e-06
-3.22668e-06
-3.22668e-06
-3.28761e-06
-3.26624e-06
-3.25065e-06
-3.22599e-06
-3.22668e-06
-3.22668e-06
-3.22668e-06
-3.22668e-06
-3.22668e-06
-3.22668e-06
-3.28837e-06
-3.25035e-06
-3.23173e-06
-3.22668e-06
-3.22668e-06
-3.22668e-06
-3.22668e-06
-3.22668e-06
-3.22668e-06
-3.2847e-06
-3.27846e-06
-3.25771e-06
-3.25204e-06
-3.22668e-06
-3.22668e-06
-3.22668e-06
-3.22668e-06
-3.30316e-06
-3.26668e-06
-3.26239e-06
-3.2535e-06
-3.25038e-06
-3.2771e-06
-3.2877e-06
-3.28844e-06
-3.28478e-06
-3.26674e-06
-3.28075e-06
-3.26828e-06
-3.26625e-06
-3.25034e-06
-3.27845e-06
-3.26242e-06
-3.20135e-06
-3.20229e-06
-3.19607e-06
-3.18388e-06
-3.18088e-06
-3.17762e-06
-3.18337e-06
-3.20926e-06
-3.20559e-06
-3.19661e-06
-3.16231e-06
-3.17832e-06
-3.17832e-06
-3.17832e-06
-3.17832e-06
-3.20367e-06
-3.20205e-06
-3.18386e-06
-3.17832e-06
-3.17832e-06
-3.17832e-06
-3.17832e-06
-3.17832e-06
-3.17832e-06
-3.22873e-06
-3.21992e-06
-3.20132e-06
-3.18091e-06
-3.17832e-06
-3.17832e-06
-3.17832e-06
-3.17832e-06
-3.17832e-06
-3.17832e-06
-3.23925e-06
-3.21788e-06
-3.20229e-06
-3.17763e-06
-3.17832e-06
-3.17832e-06
-3.17832e-06
-3.17832e-06
-3.17832e-06
-3.17832e-06
-3.24001e-06
-3.20199e-06
-3.18337e-06
-3.17832e-06
-3.17832e-06
-3.17832e-06
-3.17832e-06
-3.17832e-06
-3.17832e-06
-3.23634e-06
-3.23009e-06
-3.20935e-06
-3.20368e-06
-3.17832e-06
-3.17832e-06
-3.17832e-06
-3.17832e-06
-3.2548e-06
-3.21832e-06
-3.21403e-06
-3.20514e-06
-3.20202e-06
-3.22874e-06
-3.23933e-06
-3.24008e-06
-3.23642e-06
-3.21838e-06
-3.23239e-06
-3.21992e-06
-3.21789e-06
-3.20198e-06
-3.23009e-06
-3.21406e-06
-3.15298e-06
-3.15393e-06
-3.14772e-06
-3.13552e-06
-3.13252e-06
-3.12926e-06
-3.135e-06
-3.1609e-06
-3.15723e-06
-3.14825e-06
-3.11395e-06
-3.12996e-06
-3.12996e-06
-3.12996e-06
-3.12996e-06
-3.15531e-06
-3.15369e-06
-3.1355e-06
-3.12996e-06
-3.12996e-06
-3.12996e-06
-3.12996e-06
-3.12996e-06
-3.12996e-06
-3.18037e-06
-3.17156e-06
-3.15296e-06
-3.13254e-06
-3.12996e-06
-3.12996e-06
-3.12996e-06
-3.12996e-06
-3.12996e-06
-3.12996e-06
-3.19089e-06
-3.16952e-06
-3.15393e-06
-3.12927e-06
-3.12996e-06
-3.12996e-06
-3.12996e-06
-3.12996e-06
-3.12996e-06
-3.12996e-06
-3.19165e-06
-3.15363e-06
-3.13501e-06
-3.12996e-06
-3.12996e-06
-3.12996e-06
-3.12996e-06
-3.12996e-06
-3.12996e-06
-3.18798e-06
-3.18173e-06
-3.16099e-06
-3.15532e-06
-3.12996e-06
-3.12996e-06
-3.12996e-06
-3.12996e-06
-3.20644e-06
-3.16996e-06
-3.16567e-06
-3.15678e-06
-3.15366e-06
-3.18038e-06
-3.19097e-06
-3.19172e-06
-3.18806e-06
-3.17002e-06
-3.18403e-06
-3.17155e-06
-3.16952e-06
-3.15362e-06
-3.18173e-06
-3.1657e-06
-3.10462e-06
-3.10557e-06
-3.09936e-06
-3.08716e-06
-3.08416e-06
-3.0809e-06
-3.08664e-06
-3.11254e-06
-3.10887e-06
-3.09989e-06
-3.0656e-06
-3.0816e-06
-3.0816e-06
-3.0816e-06
-3.0816e-06
-3.10696e-06
-3.10532e-06
-3.08714e-06
-3.0816e-06
-3.0816e-06
-3.0816e-06
-3.0816e-06
-3.0816e-06
-3.0816e-06
-3.13201e-06
-3.1232e-06
-3.10459e-06
-3.08418e-06
-3.0816e-06
-3.0816e-06
-3.0816e-06
-3.0816e-06
-3.0816e-06
-3.0816e-06
-3.14253e-06
-3.12116e-06
-3.10557e-06
-3.08091e-06
-3.0816e-06
-3.0816e-06
-3.0816e-06
-3.0816e-06
-3.0816e-06
-3.0816e-06
-3.14329e-06
-3.10527e-06
-3.08665e-06
-3.0816e-06
-3.0816e-06
-3.0816e-06
-3.0816e-06
-3.0816e-06
-3.0816e-06
-3.13962e-06
-3.13337e-06
-3.11263e-06
-3.10696e-06
-3.0816e-06
-3.0816e-06
-3.0816e-06
-3.0816e-06
-3.15808e-06
-3.1216e-06
-3.11731e-06
-3.10842e-06
-3.1053e-06
-3.13202e-06
-3.14261e-06
-3.14336e-06
-3.1397e-06
-3.12166e-06
-3.13567e-06
-3.12319e-06
-3.12116e-06
-3.10526e-06
-3.13337e-06
-3.11734e-06
-3.05626e-06
-3.05721e-06
-3.05099e-06
-3.0388e-06
-3.0358e-06
-3.03254e-06
-3.03828e-06
-3.06417e-06
-3.06051e-06
-3.05153e-06
-3.01723e-06
-3.03324e-06
-3.03324e-06
-3.03324e-06
-3.03324e-06
-3.0586e-06
-3.05696e-06
-3.03878e-06
-3.03324e-06
-3.03324e-06
-3.03324e-06
-3.03324e-06
-3.03324e-06
-3.03324e-06
-3.08365e-06
-3.07484e-06
-3.05623e-06
-3.03582e-06