/*--------------------------------*- C++ -*----------------------------------*\
| =========                 |                                                 |
| \\      /  F ield         | OpenFOAM: The Open Source CFD Toolbox           |
|  \\    /   O peration     | Version:  v2012                                 |
|   \\  /    A nd           | Website:  www.openfoam.com                      |
|    \\/     M anipulation  |                                                 |
\*---------------------------------------------------------------------------*/
FoamFile
{
    version     2.0;
    format      ascii;
    class       volScalarField;
    location    "0.11";
    object      p;
}
// * * * * * * * * * * * * * * * * * * * * * * * * * * * * * * * * * * * * * //

dimensions      [0 2 -2 0 0 0 0];


internalField   nonuniform List<scalar> 
189320
(
-2.28447e-06
-2.27302e-06
-2.29099e-06
-2.29532e-06
-2.30873e-06
-2.31264e-06
-2.30371e-06
-2.30054e-06
-2.29581e-06
-2.29098e-06
-2.30957e-06
-2.31126e-06
-2.31623e-06
-2.31725e-06
-2.31396e-06
-2.31047e-06
-2.29846e-06
-2.29529e-06
-2.31126e-06
-2.31836e-06
-2.32161e-06
-2.32224e-06
-2.32025e-06
-2.31482e-06
-2.30964e-06
-2.29698e-06
-2.28476e-06
-2.30874e-06
-2.31623e-06
-2.32161e-06
-2.32358e-06
-2.3239e-06
-2.32287e-06
-2.3195e-06
-2.31131e-06
-2.29964e-06
-2.27324e-06
-2.31269e-06
-2.31725e-06
-2.32224e-06
-2.32389e-06
-2.32417e-06
-2.32334e-06
-2.32048e-06
-2.31312e-06
-2.29896e-06
-2.30374e-06
-2.31396e-06
-2.32024e-06
-2.32286e-06
-2.32333e-06
-2.32184e-06
-2.31759e-06
-2.31024e-06
-2.28531e-06
-2.30057e-06
-2.31046e-06
-2.31479e-06
-2.31947e-06
-2.32046e-06
-2.31758e-06
-2.3112e-06
-2.3084e-06
-2.29644e-06
-2.29581e-06
-2.29843e-06
-2.3096e-06
-2.31125e-06
-2.31306e-06
-2.31021e-06
-2.30837e-06
-2.3061e-06
-2.29691e-06
-2.29957e-06
-2.29875e-06
-2.28523e-06
-2.29639e-06
-2.30458e-06
-2.30539e-06
-2.30071e-06
-2.29487e-06
-2.29427e-06
-2.29124e-06
-2.29433e-06
-2.30896e-06
-2.30631e-06
-2.30072e-06
-2.28205e-06
-2.29684e-06
-2.30158e-06
-2.3016e-06
-2.29688e-06
-2.30437e-06
-2.30827e-06
-2.29486e-06
-2.29686e-06
-2.31258e-06
-2.31319e-06
-2.31323e-06
-2.31258e-06
-2.29682e-06
-2.32499e-06
-2.317e-06
-2.30457e-06
-2.29426e-06
-2.30159e-06
-2.31323e-06
-2.31304e-06
-2.31305e-06
-2.31321e-06
-2.30163e-06
-2.32639e-06
-2.31724e-06
-2.30539e-06
-2.29123e-06
-2.30157e-06
-2.31322e-06
-2.31305e-06
-2.31305e-06
-2.3132e-06
-2.30161e-06
-2.32709e-06
-2.30983e-06
-2.29432e-06
-2.29687e-06
-2.31257e-06
-2.3132e-06
-2.31323e-06
-2.31256e-06
-2.29683e-06
-2.32701e-06
-2.3232e-06
-2.30892e-06
-2.30435e-06
-2.2968e-06
-2.30156e-06
-2.30159e-06
-2.29684e-06
-2.34704e-06
-2.31962e-06
-2.31256e-06
-2.30627e-06
-2.30825e-06
-2.32496e-06
-2.32638e-06
-2.32709e-06
-2.32704e-06
-2.31967e-06
-2.32534e-06
-2.31698e-06
-2.31725e-06
-2.30983e-06
-2.32323e-06
-2.31255e-06
-2.28433e-06
-2.28519e-06
-2.27945e-06
-2.27298e-06
-2.27113e-06
-2.26908e-06
-2.27264e-06
-2.2878e-06
-2.2853e-06
-2.27946e-06
-2.25963e-06
-2.27301e-06
-2.27394e-06
-2.27396e-06
-2.27302e-06
-2.28408e-06
-2.28493e-06
-2.27299e-06
-2.273e-06
-2.2799e-06
-2.28065e-06
-2.2807e-06
-2.2799e-06
-2.273e-06
-2.3035e-06
-2.297e-06
-2.28432e-06
-2.27115e-06
-2.27393e-06
-2.28069e-06
-2.28116e-06
-2.28118e-06
-2.28068e-06
-2.27397e-06
-2.3108e-06
-2.29658e-06
-2.28517e-06
-2.26905e-06
-2.27392e-06
-2.28069e-06
-2.28117e-06
-2.28118e-06
-2.28067e-06
-2.27397e-06
-2.3118e-06
-2.28773e-06
-2.27263e-06
-2.273e-06
-2.27989e-06
-2.28067e-06
-2.2807e-06
-2.27989e-06
-2.27301e-06
-2.30952e-06
-2.30491e-06
-2.28776e-06
-2.28406e-06
-2.27297e-06
-2.27393e-06
-2.27395e-06
-2.273e-06
-2.32008e-06
-2.29704e-06
-2.29282e-06
-2.28525e-06
-2.28491e-06
-2.30348e-06
-2.31075e-06
-2.31178e-06
-2.30949e-06
-2.29707e-06
-2.30464e-06
-2.29698e-06
-2.29657e-06
-2.28771e-06
-2.30489e-06
-2.29281e-06
-2.25974e-06
-2.26052e-06
-2.25554e-06
-2.24842e-06
-2.24625e-06
-2.24412e-06
-2.2481e-06
-2.26364e-06
-2.26151e-06
-2.25553e-06
-2.23461e-06
-2.24839e-06
-2.24859e-06
-2.2486e-06
-2.2484e-06
-2.26042e-06
-2.26102e-06
-2.2484e-06
-2.24839e-06
-2.25072e-06
-2.25112e-06
-2.25115e-06
-2.25072e-06
-2.24839e-06
-2.27897e-06
-2.27273e-06
-2.25973e-06
-2.24626e-06
-2.24858e-06
-2.25114e-06
-2.25152e-06
-2.25153e-06
-2.25114e-06
-2.2486e-06
-2.2864e-06
-2.27196e-06
-2.26052e-06
-2.24412e-06
-2.24858e-06
-2.25115e-06
-2.25153e-06
-2.25153e-06
-2.25113e-06
-2.24859e-06
-2.28695e-06
-2.26281e-06
-2.2481e-06
-2.24839e-06
-2.25072e-06
-2.25113e-06
-2.25115e-06
-2.25072e-06
-2.2484e-06
-2.28462e-06
-2.2805e-06
-2.26363e-06
-2.2604e-06
-2.24838e-06
-2.24857e-06
-2.24858e-06
-2.24839e-06
-2.29668e-06
-2.27252e-06
-2.26878e-06
-2.26148e-06
-2.26102e-06
-2.27897e-06
-2.28639e-06
-2.28694e-06
-2.28464e-06
-2.27255e-06
-2.28104e-06
-2.27274e-06
-2.27196e-06
-2.2628e-06
-2.28048e-06
-2.26875e-06
-2.23453e-06
-2.23531e-06
-2.23055e-06
-2.22318e-06
-2.22091e-06
-2.2187e-06
-2.22288e-06
-2.23857e-06
-2.23655e-06
-2.23055e-06
-2.20911e-06
-2.22312e-06
-2.22317e-06
-2.22317e-06
-2.22312e-06
-2.23545e-06
-2.23607e-06
-2.22316e-06
-2.22311e-06
-2.22396e-06
-2.22407e-06
-2.22408e-06
-2.22396e-06
-2.22312e-06
-2.25374e-06
-2.24768e-06
-2.23452e-06
-2.22091e-06
-2.22317e-06
-2.22407e-06
-2.22419e-06
-2.2242e-06
-2.22407e-06
-2.22317e-06
-2.26114e-06
-2.24676e-06
-2.23532e-06
-2.2187e-06
-2.22317e-06
-2.22407e-06
-2.2242e-06
-2.2242e-06
-2.22407e-06
-2.22317e-06
-2.26164e-06
-2.23755e-06
-2.22288e-06
-2.22312e-06
-2.22396e-06
-2.22407e-06
-2.22408e-06
-2.22396e-06
-2.22312e-06
-2.25913e-06
-2.25538e-06
-2.23857e-06
-2.23546e-06
-2.22312e-06
-2.22316e-06
-2.22317e-06
-2.22312e-06
-2.27191e-06
-2.24737e-06
-2.24377e-06
-2.23654e-06
-2.23606e-06
-2.25373e-06
-2.26112e-06
-2.26164e-06
-2.25915e-06
-2.24741e-06
-2.25618e-06
-2.24766e-06
-2.24675e-06
-2.23755e-06
-2.25537e-06
-2.24376e-06
-2.20913e-06
-2.2099e-06
-2.20519e-06
-2.19773e-06
-2.19541e-06
-2.19315e-06
-2.19744e-06
-2.2132e-06
-2.21122e-06
-2.2052e-06
-2.18355e-06
-2.19764e-06
-2.19765e-06
-2.19765e-06
-2.19764e-06
-2.2101e-06
-2.21074e-06
-2.19774e-06
-2.19765e-06
-2.19795e-06
-2.198e-06
-2.198e-06
-2.19796e-06
-2.19765e-06
-2.22831e-06
-2.22229e-06
-2.209e-06
-2.19542e-06
-2.19765e-06
-2.198e-06
-2.19804e-06
-2.19804e-06
-2.198e-06
-2.19765e-06
-2.23566e-06
-2.22134e-06
-2.20989e-06
-2.19315e-06
-2.19765e-06
-2.198e-06
-2.19804e-06
-2.19803e-06
-2.198e-06
-2.19765e-06
-2.23615e-06
-2.21213e-06
-2.19744e-06
-2.19765e-06
-2.19795e-06
-2.198e-06
-2.198e-06
-2.19795e-06
-2.19765e-06
-2.23362e-06
-2.22999e-06
-2.2132e-06
-2.2101e-06
-2.19764e-06
-2.19765e-06
-2.19766e-06
-2.19765e-06
-2.24668e-06
-2.22199e-06
-2.21841e-06
-2.21122e-06
-2.21073e-06
-2.2283e-06
-2.23565e-06
-2.23615e-06
-2.23364e-06
-2.22203e-06
-2.23091e-06
-2.2223e-06
-2.22134e-06
-2.21212e-06
-2.22997e-06
-2.21841e-06
-2.18364e-06
-2.1844e-06
-2.17972e-06
-2.17223e-06
-2.16987e-06
-2.16759e-06
-2.17194e-06
-2.18771e-06
-2.18574e-06
-2.17973e-06
-2.15799e-06
-2.17213e-06
-2.17212e-06
-2.17212e-06
-2.17213e-06
-2.18461e-06
-2.18527e-06
-2.17223e-06
-2.17212e-06
-2.17223e-06
-2.17225e-06
-2.17225e-06
-2.17223e-06
-2.17211e-06
-2.20282e-06
-2.19682e-06
-2.1835e-06
-2.16986e-06
-2.17211e-06
-2.17225e-06
-2.17227e-06
-2.17226e-06
-2.17225e-06
-2.17212e-06
-2.21013e-06
-2.19585e-06
-2.18439e-06
-2.16759e-06
-2.17212e-06
-2.17225e-06
-2.17227e-06
-2.17226e-06
-2.17225e-06
-2.17212e-06
-2.21062e-06
-2.18663e-06
-2.17195e-06
-2.17212e-06
-2.17223e-06
-2.17225e-06
-2.17225e-06
-2.17223e-06
-2.17212e-06
-2.2081e-06
-2.20451e-06
-2.18771e-06
-2.18461e-06
-2.17212e-06
-2.17212e-06
-2.17212e-06
-2.17212e-06
-2.22127e-06
-2.19651e-06
-2.19293e-06
-2.18575e-06
-2.18527e-06
-2.20282e-06
-2.21015e-06
-2.21061e-06
-2.20811e-06
-2.19655e-06
-2.20545e-06
-2.19682e-06
-2.19585e-06
-2.18662e-06
-2.20451e-06
-2.19293e-06
-2.1581e-06
-2.15887e-06
-2.1542e-06
-2.1467e-06
-2.14432e-06
-2.14204e-06
-2.14642e-06
-2.16219e-06
-2.16023e-06
-2.15421e-06
-2.13242e-06
-2.14658e-06
-2.14659e-06
-2.14659e-06
-2.14658e-06
-2.15909e-06
-2.15976e-06
-2.14669e-06
-2.14659e-06
-2.14662e-06
-2.14663e-06
-2.14663e-06
-2.14662e-06
-2.14658e-06
-2.17728e-06
-2.1713e-06
-2.15797e-06
-2.14432e-06
-2.14659e-06
-2.14663e-06
-2.14664e-06
-2.14664e-06
-2.14663e-06
-2.14658e-06
-2.1846e-06
-2.17032e-06
-2.15886e-06
-2.14204e-06
-2.14659e-06
-2.14663e-06
-2.14664e-06
-2.14664e-06
-2.14663e-06
-2.14658e-06
-2.18507e-06
-2.16109e-06
-2.14642e-06
-2.14658e-06
-2.14662e-06
-2.14663e-06
-2.14663e-06
-2.14662e-06
-2.14658e-06
-2.18254e-06
-2.17898e-06
-2.16219e-06
-2.15909e-06
-2.14658e-06
-2.14659e-06
-2.14659e-06
-2.14658e-06
-2.19579e-06
-2.17101e-06
-2.16741e-06
-2.16024e-06
-2.15975e-06
-2.17729e-06
-2.18459e-06
-2.18506e-06
-2.18256e-06
-2.17104e-06
-2.17994e-06
-2.1713e-06
-2.17032e-06
-2.16108e-06
-2.17898e-06
-2.16742e-06
-2.13258e-06
-2.13334e-06
-2.12867e-06
-2.12116e-06
-2.11878e-06
-2.1165e-06
-2.12088e-06
-2.13665e-06
-2.1347e-06
-2.12868e-06
-2.10688e-06
-2.12104e-06
-2.12104e-06
-2.12104e-06
-2.12104e-06
-2.13356e-06
-2.13423e-06
-2.12116e-06
-2.12103e-06
-2.12106e-06
-2.12107e-06
-2.12107e-06
-2.12106e-06
-2.12105e-06
-2.15176e-06
-2.14577e-06
-2.13244e-06
-2.11878e-06
-2.12104e-06
-2.12107e-06
-2.12107e-06
-2.12107e-06
-2.12106e-06
-2.12105e-06
-2.15907e-06
-2.14479e-06
-2.13332e-06
-2.11649e-06
-2.12104e-06
-2.12106e-06
-2.12106e-06
-2.12107e-06
-2.12107e-06
-2.12104e-06
-2.15954e-06
-2.13557e-06
-2.12088e-06
-2.12104e-06
-2.12107e-06
-2.12107e-06
-2.12107e-06
-2.12106e-06
-2.12104e-06
-2.15701e-06
-2.15345e-06
-2.13665e-06
-2.13356e-06
-2.12103e-06
-2.12104e-06
-2.12104e-06
-2.12103e-06
-2.17026e-06
-2.14547e-06
-2.14188e-06
-2.13471e-06
-2.13422e-06
-2.15176e-06
-2.15906e-06
-2.15953e-06
-2.15703e-06
-2.14551e-06
-2.15442e-06
-2.14577e-06
-2.14478e-06
-2.13555e-06
-2.15345e-06
-2.14189e-06
-2.10704e-06
-2.1078e-06
-2.10314e-06
-2.09562e-06
-2.09324e-06
-2.09095e-06
-2.09535e-06
-2.11112e-06
-2.10916e-06
-2.10314e-06
-2.08133e-06
-2.0955e-06
-2.0955e-06
-2.0955e-06
-2.0955e-06
-2.10803e-06
-2.1087e-06
-2.09562e-06
-2.0955e-06
-2.09551e-06
-2.09551e-06
-2.09551e-06
-2.09551e-06
-2.0955e-06
-2.12622e-06
-2.12024e-06
-2.1069e-06
-2.09323e-06
-2.0955e-06
-2.09551e-06
-2.09551e-06
-2.09551e-06
-2.09551e-06
-2.0955e-06
-2.13353e-06
-2.11925e-06
-2.10779e-06
-2.09095e-06
-2.0955e-06
-2.09551e-06
-2.09551e-06
-2.09551e-06
-2.09551e-06
-2.0955e-06
-2.134e-06
-2.11003e-06
-2.09534e-06
-2.0955e-06
-2.09551e-06
-2.09551e-06
-2.09551e-06
-2.09551e-06
-2.0955e-06
-2.13147e-06
-2.12792e-06
-2.11112e-06
-2.10803e-06
-2.0955e-06
-2.0955e-06
-2.0955e-06
-2.0955e-06
-2.14473e-06
-2.11994e-06
-2.11635e-06
-2.10917e-06
-2.10869e-06
-2.12622e-06
-2.13353e-06
-2.13399e-06
-2.1315e-06
-2.11998e-06
-2.12889e-06
-2.12023e-06
-2.11925e-06
-2.11002e-06
-2.12792e-06
-2.11636e-06
-2.0815e-06
-2.08226e-06
-2.0776e-06
-2.07008e-06
-2.06769e-06
-2.06541e-06
-2.0698e-06
-2.08557e-06
-2.08362e-06
-2.0776e-06
-2.05579e-06
-2.06996e-06
-2.06996e-06
-2.06996e-06
-2.06996e-06
-2.08248e-06
-2.08315e-06
-2.07008e-06
-2.06996e-06
-2.06996e-06
-2.06996e-06
-2.06996e-06
-2.06996e-06
-2.06996e-06
-2.10068e-06
-2.09469e-06
-2.08136e-06
-2.06769e-06
-2.06996e-06
-2.06996e-06
-2.06996e-06
-2.06996e-06
-2.06996e-06
-2.06996e-06
-2.10798e-06
-2.09371e-06
-2.08225e-06
-2.06541e-06
-2.06996e-06
-2.06996e-06
-2.06996e-06
-2.06996e-06
-2.06996e-06
-2.06996e-06
-2.10845e-06
-2.08449e-06
-2.0698e-06
-2.06996e-06
-2.06996e-06
-2.06996e-06
-2.06996e-06
-2.06996e-06
-2.06996e-06
-2.10593e-06
-2.10237e-06
-2.08557e-06
-2.08248e-06
-2.06996e-06
-2.06996e-06
-2.06996e-06
-2.06996e-06
-2.11918e-06
-2.0944e-06
-2.0908e-06
-2.08363e-06
-2.08315e-06
-2.10068e-06
-2.10798e-06
-2.10844e-06
-2.10595e-06
-2.09443e-06
-2.10334e-06
-2.09469e-06
-2.0937e-06
-2.08447e-06
-2.10238e-06
-2.09081e-06
-2.05596e-06
-2.05672e-06
-2.05206e-06
-2.04454e-06
-2.04215e-06
-2.03986e-06
-2.04426e-06
-2.06002e-06
-2.05808e-06
-2.05206e-06
-2.03024e-06
-2.04441e-06
-2.04441e-06
-2.04441e-06
-2.04441e-06
-2.05693e-06
-2.05761e-06
-2.04453e-06
-2.04441e-06
-2.04441e-06
-2.04441e-06
-2.04441e-06
-2.04441e-06
-2.04441e-06
-2.07513e-06
-2.06915e-06
-2.05581e-06
-2.04214e-06
-2.04441e-06
-2.04441e-06
-2.04441e-06
-2.04441e-06
-2.04441e-06
-2.04441e-06
-2.08243e-06
-2.06816e-06
-2.0567e-06
-2.03986e-06
-2.04441e-06
-2.04441e-06
-2.04441e-06
-2.04441e-06
-2.04441e-06
-2.04441e-06
-2.0829e-06
-2.05894e-06
-2.04426e-06
-2.04441e-06
-2.04441e-06
-2.04441e-06
-2.04441e-06
-2.04441e-06
-2.04441e-06
-2.08039e-06
-2.07683e-06
-2.06003e-06
-2.05694e-06
-2.04441e-06
-2.04441e-06
-2.04441e-06
-2.04441e-06
-2.09365e-06
-2.06885e-06
-2.06526e-06
-2.05809e-06
-2.05761e-06
-2.07513e-06
-2.08243e-06
-2.0829e-06
-2.08041e-06
-2.06889e-06
-2.0778e-06
-2.06915e-06
-2.06816e-06
-2.05893e-06
-2.07683e-06
-2.06527e-06
-2.0304e-06
-2.03117e-06
-2.02651e-06
-2.01899e-06
-2.0166e-06
-2.01432e-06
-2.01871e-06
-2.03448e-06
-2.03253e-06
-2.02651e-06
-2.00469e-06
-2.01887e-06
-2.01887e-06
-2.01887e-06
-2.01887e-06
-2.03138e-06
-2.03206e-06
-2.01899e-06
-2.01887e-06
-2.01887e-06
-2.01887e-06
-2.01887e-06
-2.01887e-06
-2.01887e-06
-2.04959e-06
-2.0436e-06
-2.03027e-06
-2.0166e-06
-2.01887e-06
-2.01887e-06
-2.01887e-06
-2.01887e-06
-2.01887e-06
-2.01887e-06
-2.05689e-06
-2.04262e-06
-2.03115e-06
-2.01431e-06
-2.01887e-06
-2.01887e-06
-2.01887e-06
-2.01887e-06
-2.01887e-06
-2.01887e-06
-2.05736e-06
-2.03339e-06
-2.01871e-06
-2.01887e-06
-2.01887e-06
-2.01887e-06
-2.01887e-06
-2.01887e-06
-2.01887e-06
-2.05484e-06
-2.05128e-06
-2.03448e-06
-2.03139e-06
-2.01887e-06
-2.01887e-06
-2.01887e-06
-2.01887e-06
-2.0681e-06
-2.04331e-06
-2.03971e-06
-2.03254e-06
-2.03206e-06
-2.04959e-06
-2.05689e-06
-2.05736e-06
-2.05486e-06
-2.04334e-06
-2.05226e-06
-2.0436e-06
-2.04261e-06
-2.03338e-06
-2.05129e-06
-2.03973e-06
-2.00486e-06
-2.00562e-06
-2.00096e-06
-1.99345e-06
-1.99106e-06
-1.98877e-06
-1.99317e-06
-2.00893e-06
-2.00698e-06
-2.00096e-06
-1.97915e-06
-1.99332e-06
-1.99332e-06
-1.99332e-06
-1.99332e-06
-2.00584e-06
-2.00652e-06
-1.99344e-06
-1.99332e-06
-1.99332e-06
-1.99332e-06
-1.99332e-06
-1.99332e-06
-1.99332e-06
-2.02404e-06
-2.01806e-06
-2.00472e-06
-1.99105e-06
-1.99332e-06
-1.99332e-06
-1.99332e-06
-1.99332e-06
-1.99332e-06
-1.99332e-06
-2.03134e-06
-2.01707e-06
-2.00561e-06
-1.98877e-06
-1.99332e-06
-1.99332e-06
-1.99332e-06
-1.99332e-06
-1.99332e-06
-1.99332e-06
-2.03181e-06
-2.00785e-06
-1.99317e-06
-1.99332e-06
-1.99332e-06
-1.99332e-06
-1.99332e-06
-1.99332e-06
-1.99332e-06
-2.02929e-06
-2.02574e-06
-2.00894e-06
-2.00585e-06
-1.99332e-06
-1.99332e-06
-1.99332e-06
-1.99332e-06
-2.04255e-06
-2.01776e-06
-2.01417e-06
-2.00699e-06
-2.00651e-06
-2.02404e-06
-2.03134e-06
-2.03181e-06
-2.02931e-06
-2.0178e-06
-2.02671e-06
-2.01806e-06
-2.01707e-06
-2.00784e-06
-2.02574e-06
-2.01418e-06
-1.97932e-06
-1.98008e-06
-1.97542e-06
-1.9679e-06
-1.96551e-06
-1.96323e-06
-1.96763e-06
-1.98339e-06
-1.98144e-06
-1.97542e-06
-1.9536e-06
-1.96778e-06
-1.96778e-06
-1.96778e-06
-1.96778e-06
-1.98029e-06
-1.98097e-06
-1.9679e-06
-1.96778e-06
-1.96778e-06
-1.96778e-06
-1.96778e-06
-1.96778e-06
-1.96778e-06
-1.9985e-06
-1.99251e-06
-1.97918e-06
-1.96551e-06
-1.96778e-06
-1.96778e-06
-1.96778e-06
-1.96778e-06
-1.96778e-06
-1.96778e-06
-2.0058e-06
-1.99153e-06
-1.98006e-06
-1.96322e-06
-1.96778e-06
-1.96778e-06
-1.96778e-06
-1.96778e-06
-1.96778e-06
-1.96778e-06
-2.00627e-06
-1.9823e-06
-1.96762e-06
-1.96778e-06
-1.96778e-06
-1.96778e-06
-1.96778e-06
-1.96778e-06
-1.96778e-06
-2.00375e-06
-2.00019e-06
-1.98339e-06
-1.98031e-06
-1.96778e-06
-1.96778e-06
-1.96778e-06
-1.96778e-06
-2.01701e-06
-1.99222e-06
-1.98862e-06
-1.98145e-06
-1.98097e-06
-1.9985e-06
-2.0058e-06
-2.00626e-06
-2.00377e-06
-1.99225e-06
-2.00117e-06
-1.99251e-06
-1.99153e-06
-1.98229e-06
-2.0002e-06
-1.98863e-06
-1.95378e-06
-1.95454e-06
-1.94988e-06
-1.94236e-06
-1.93997e-06
-1.93769e-06
-1.94209e-06
-1.95785e-06
-1.9559e-06
-1.94988e-06
-1.92806e-06
-1.94224e-06
-1.94224e-06
-1.94224e-06
-1.94224e-06
-1.95475e-06
-1.95543e-06
-1.94235e-06
-1.94224e-06
-1.94224e-06
-1.94224e-06
-1.94224e-06
-1.94224e-06
-1.94224e-06
-1.97296e-06
-1.96697e-06
-1.95363e-06
-1.93997e-06
-1.94224e-06
-1.94224e-06
-1.94224e-06
-1.94224e-06
-1.94224e-06
-1.94224e-06
-1.98026e-06
-1.96599e-06
-1.95452e-06
-1.93768e-06
-1.94224e-06
-1.94224e-06
-1.94224e-06
-1.94224e-06
-1.94224e-06
-1.94224e-06
-1.98073e-06
-1.95676e-06
-1.94208e-06
-1.94224e-06
-1.94224e-06
-1.94224e-06
-1.94224e-06
-1.94224e-06
-1.94224e-06
-1.97821e-06
-1.97465e-06
-1.95785e-06
-1.95476e-06
-1.94224e-06
-1.94224e-06
-1.94224e-06
-1.94224e-06
-1.99147e-06
-1.96668e-06
-1.96308e-06
-1.95591e-06
-1.95543e-06
-1.97296e-06
-1.98026e-06
-1.98072e-06
-1.97823e-06
-1.96671e-06
-1.97562e-06
-1.96697e-06
-1.96599e-06
-1.95675e-06
-1.97466e-06
-1.96309e-06
-1.92824e-06
-1.929e-06
-1.92434e-06
-1.91682e-06
-1.91443e-06
-1.91215e-06
-1.91655e-06
-1.93231e-06
-1.93036e-06
-1.92434e-06
-1.90252e-06
-1.9167e-06
-1.9167e-06
-1.9167e-06
-1.9167e-06
-1.92921e-06
-1.92989e-06
-1.91681e-06
-1.9167e-06
-1.9167e-06
-1.9167e-06
-1.9167e-06
-1.9167e-06
-1.9167e-06
-1.94742e-06
-1.94143e-06
-1.92809e-06
-1.91443e-06
-1.9167e-06
-1.9167e-06
-1.9167e-06
-1.9167e-06
-1.9167e-06
-1.9167e-06
-1.95472e-06
-1.94045e-06
-1.92898e-06
-1.91214e-06
-1.9167e-06
-1.9167e-06
-1.9167e-06
-1.9167e-06
-1.9167e-06
-1.9167e-06
-1.95518e-06
-1.93122e-06
-1.91654e-06
-1.9167e-06
-1.9167e-06
-1.9167e-06
-1.9167e-06
-1.9167e-06
-1.9167e-06
-1.95267e-06
-1.94911e-06
-1.93231e-06
-1.92922e-06
-1.9167e-06
-1.9167e-06
-1.9167e-06
-1.9167e-06
-1.96593e-06
-1.94114e-06
-1.93754e-06
-1.93037e-06
-1.92989e-06
-1.94742e-06
-1.95472e-06
-1.95518e-06
-1.95269e-06
-1.94117e-06
-1.95008e-06
-1.94143e-06
-1.94044e-06
-1.93121e-06
-1.94912e-06
-1.93755e-06
-1.90269e-06
-1.90346e-06
-1.8988e-06
-1.89128e-06
-1.88889e-06
-1.8866e-06
-1.891e-06
-1.90677e-06
-1.90482e-06
-1.8988e-06
-1.87698e-06
-1.89116e-06
-1.89116e-06
-1.89116e-06
-1.89116e-06
-1.90367e-06
-1.90435e-06
-1.89127e-06
-1.89116e-06
-1.89116e-06
-1.89116e-06
-1.89116e-06
-1.89116e-06
-1.89116e-06
-1.92188e-06
-1.91589e-06
-1.90255e-06
-1.88889e-06
-1.89116e-06
-1.89116e-06
-1.89116e-06
-1.89116e-06
-1.89116e-06
-1.89116e-06
-1.92918e-06
-1.91491e-06
-1.90344e-06
-1.8866e-06
-1.89116e-06
-1.89116e-06
-1.89116e-06
-1.89116e-06
-1.89116e-06
-1.89116e-06
-1.92964e-06
-1.90568e-06
-1.891e-06
-1.89116e-06
-1.89116e-06
-1.89116e-06
-1.89116e-06
-1.89116e-06
-1.89116e-06
-1.92713e-06
-1.92357e-06
-1.90677e-06
-1.90368e-06
-1.89116e-06
-1.89116e-06
-1.89116e-06
-1.89116e-06
-1.94039e-06
-1.9156e-06
-1.912e-06
-1.90483e-06
-1.90435e-06
-1.92188e-06
-1.92918e-06
-1.92964e-06
-1.92715e-06
-1.91563e-06
-1.92454e-06
-1.91589e-06
-1.9149e-06
-1.90567e-06
-1.92358e-06
-1.91201e-06
-1.87715e-06
-1.87791e-06
-1.87325e-06
-1.86574e-06
-1.86335e-06
-1.86106e-06
-1.86546e-06
-1.88123e-06
-1.87927e-06
-1.87326e-06
-1.85144e-06
-1.86561e-06
-1.86561e-06
-1.86561e-06
-1.86561e-06
-1.87813e-06
-1.87881e-06
-1.86573e-06
-1.86561e-06
-1.86561e-06
-1.86561e-06
-1.86561e-06
-1.86561e-06
-1.86561e-06
-1.89633e-06
-1.89035e-06
-1.87701e-06
-1.86334e-06
-1.86561e-06
-1.86561e-06
-1.86561e-06
-1.86561e-06
-1.86561e-06
-1.86561e-06
-1.90363e-06
-1.88936e-06
-1.8779e-06
-1.86106e-06
-1.86561e-06
-1.86561e-06
-1.86561e-06
-1.86561e-06
-1.86561e-06
-1.86561e-06
-1.9041e-06
-1.88014e-06
-1.86546e-06
-1.86561e-06
-1.86561e-06
-1.86561e-06
-1.86561e-06
-1.86561e-06
-1.86561e-06
-1.90159e-06
-1.89803e-06
-1.88123e-06
-1.87814e-06
-1.86561e-06
-1.86561e-06
-1.86561e-06
-1.86561e-06
-1.91485e-06
-1.89006e-06
-1.88646e-06
-1.87929e-06
-1.87881e-06
-1.89633e-06
-1.90363e-06
-1.9041e-06
-1.90161e-06
-1.89009e-06
-1.899e-06
-1.89035e-06
-1.88936e-06
-1.88013e-06
-1.89804e-06
-1.88648e-06
-1.85161e-06
-1.85237e-06
-1.84771e-06
-1.8402e-06
-1.8378e-06
-1.83552e-06
-1.83992e-06
-1.85569e-06
-1.85373e-06
-1.84771e-06
-1.8259e-06
-1.84007e-06
-1.84007e-06
-1.84007e-06
-1.84007e-06
-1.85259e-06
-1.85327e-06
-1.84019e-06
-1.84007e-06
-1.84007e-06
-1.84007e-06
-1.84007e-06
-1.84007e-06
-1.84007e-06
-1.87079e-06
-1.8648e-06
-1.85147e-06
-1.8378e-06
-1.84007e-06
-1.84007e-06
-1.84007e-06
-1.84007e-06
-1.84007e-06
-1.84007e-06
-1.87809e-06
-1.86382e-06
-1.85236e-06
-1.83551e-06
-1.84007e-06
-1.84007e-06
-1.84007e-06
-1.84007e-06
-1.84007e-06
-1.84007e-06
-1.87856e-06
-1.8546e-06
-1.83992e-06
-1.84007e-06
-1.84007e-06
-1.84007e-06
-1.84007e-06
-1.84007e-06
-1.84007e-06
-1.87604e-06
-1.87248e-06
-1.85568e-06
-1.8526e-06
-1.84007e-06
-1.84007e-06
-1.84007e-06
-1.84007e-06
-1.8893e-06
-1.86451e-06
-1.86091e-06
-1.85374e-06
-1.85326e-06
-1.87079e-06
-1.87809e-06
-1.87855e-06
-1.87606e-06
-1.86454e-06
-1.87346e-06
-1.86481e-06
-1.86382e-06
-1.85459e-06
-1.87249e-06
-1.86093e-06
-1.82606e-06
-1.82682e-06
-1.82216e-06
-1.81465e-06
-1.81226e-06
-1.80997e-06
-1.81437e-06
-1.83014e-06
-1.82819e-06
-1.82217e-06
-1.80035e-06
-1.81452e-06
-1.81452e-06
-1.81452e-06
-1.81452e-06
-1.82704e-06
-1.82772e-06
-1.81464e-06
-1.81452e-06
-1.81452e-06
-1.81452e-06
-1.81452e-06
-1.81452e-06
-1.81452e-06
-1.84524e-06
-1.83926e-06
-1.82592e-06
-1.81225e-06
-1.81452e-06
-1.81452e-06
-1.81452e-06
-1.81452e-06
-1.81452e-06
-1.81452e-06
-1.85254e-06
-1.83827e-06
-1.82681e-06
-1.80997e-06
-1.81452e-06
-1.81452e-06
-1.81452e-06
-1.81452e-06
-1.81452e-06
-1.81452e-06
-1.85301e-06
-1.82905e-06
-1.81437e-06
-1.81452e-06
-1.81452e-06
-1.81452e-06
-1.81452e-06
-1.81452e-06
-1.81452e-06
-1.85049e-06
-1.84694e-06
-1.83014e-06
-1.82705e-06
-1.81452e-06
-1.81452e-06
-1.81452e-06
-1.81452e-06
-1.86376e-06
-1.83896e-06
-1.83537e-06
-1.8282e-06
-1.82772e-06
-1.84524e-06
-1.85254e-06
-1.85301e-06
-1.85052e-06
-1.839e-06
-1.84791e-06
-1.83926e-06
-1.83827e-06
-1.82904e-06
-1.84694e-06
-1.83538e-06
-1.80052e-06
-1.80128e-06
-1.79662e-06
-1.7891e-06
-1.78671e-06
-1.78442e-06
-1.78883e-06
-1.80459e-06
-1.80264e-06
-1.79662e-06
-1.7748e-06
-1.78898e-06
-1.78898e-06
-1.78898e-06
-1.78898e-06
-1.80149e-06
-1.80217e-06
-1.78909e-06
-1.78898e-06
-1.78898e-06
-1.78898e-06
-1.78898e-06
-1.78898e-06
-1.78898e-06
-1.8197e-06
-1.81371e-06
-1.80038e-06
-1.78671e-06
-1.78898e-06
-1.78898e-06
-1.78898e-06
-1.78898e-06
-1.78898e-06
-1.78898e-06
-1.827e-06
-1.81273e-06
-1.80126e-06
-1.78442e-06
-1.78898e-06
-1.78898e-06
-1.78898e-06
-1.78898e-06
-1.78898e-06
-1.78898e-06
-1.82746e-06
-1.8035e-06
-1.78882e-06
-1.78898e-06
-1.78898e-06
-1.78898e-06
-1.78898e-06
-1.78898e-06
-1.78898e-06
-1.82495e-06
-1.82139e-06
-1.80459e-06
-1.8015e-06
-1.78898e-06
-1.78898e-06
-1.78898e-06
-1.78898e-06
-1.83821e-06
-1.81342e-06
-1.80982e-06
-1.80265e-06
-1.80217e-06
-1.8197e-06
-1.827e-06
-1.82747e-06
-1.82497e-06
-1.81345e-06
-1.82236e-06
-1.81371e-06
-1.81273e-06
-1.8035e-06
-1.8214e-06
-1.80983e-06
-1.77497e-06
-1.77573e-06
-1.77107e-06
-1.76356e-06
-1.76116e-06
-1.75888e-06
-1.76328e-06
-1.77905e-06
-1.77709e-06
-1.77107e-06
-1.74926e-06
-1.76343e-06
-1.76343e-06
-1.76343e-06
-1.76343e-06
-1.77595e-06
-1.77663e-06
-1.76355e-06
-1.76343e-06
-1.76343e-06
-1.76343e-06
-1.76343e-06
-1.76343e-06
-1.76343e-06
-1.79415e-06
-1.78817e-06
-1.77483e-06
-1.76116e-06
-1.76343e-06
-1.76343e-06
-1.76343e-06
-1.76343e-06
-1.76343e-06
-1.76343e-06
-1.80145e-06
-1.78718e-06
-1.77572e-06
-1.75888e-06
-1.76343e-06
-1.76343e-06
-1.76343e-06
-1.76343e-06
-1.76343e-06
-1.76343e-06
-1.80192e-06
-1.77796e-06
-1.76328e-06
-1.76343e-06
-1.76343e-06
-1.76343e-06
-1.76343e-06
-1.76343e-06
-1.76343e-06
-1.7994e-06
-1.79585e-06
-1.77905e-06
-1.77596e-06
-1.76343e-06
-1.76343e-06
-1.76343e-06
-1.76343e-06
-1.81266e-06
-1.78787e-06
-1.78428e-06
-1.7771e-06
-1.77662e-06
-1.79415e-06
-1.80145e-06
-1.80192e-06
-1.79943e-06
-1.78791e-06
-1.79682e-06
-1.78817e-06
-1.78718e-06
-1.77795e-06
-1.79585e-06
-1.78428e-06
-1.74943e-06
-1.75019e-06
-1.74553e-06
-1.73801e-06
-1.73562e-06
-1.73334e-06
-1.73774e-06
-1.75351e-06
-1.75155e-06
-1.74553e-06
-1.72372e-06
-1.73789e-06
-1.73789e-06
-1.73789e-06
-1.73789e-06
-1.75041e-06
-1.75108e-06
-1.73801e-06
-1.73789e-06
-1.73789e-06
-1.73789e-06
-1.73789e-06
-1.73789e-06
-1.73789e-06
-1.76861e-06
-1.76262e-06
-1.74929e-06
-1.73562e-06
-1.73789e-06
-1.73789e-06
-1.73789e-06
-1.73789e-06
-1.73789e-06
-1.73789e-06
-1.77591e-06
-1.76164e-06
-1.75017e-06
-1.73333e-06
-1.73789e-06
-1.73789e-06
-1.73789e-06
-1.73789e-06
-1.73789e-06
-1.73789e-06
-1.77638e-06
-1.75242e-06
-1.73774e-06
-1.73789e-06
-1.73789e-06
-1.73789e-06
-1.73789e-06
-1.73789e-06
-1.73789e-06
-1.77386e-06
-1.7703e-06
-1.7535e-06
-1.75042e-06
-1.73789e-06
-1.73789e-06
-1.73789e-06
-1.73789e-06
-1.78712e-06
-1.76233e-06
-1.75873e-06
-1.75156e-06
-1.75108e-06
-1.76861e-06
-1.77591e-06
-1.77638e-06
-1.77389e-06
-1.76236e-06
-1.77128e-06
-1.76262e-06
-1.76164e-06
-1.75241e-06
-1.77031e-06
-1.75874e-06
-1.72389e-06
-1.72465e-06
-1.71999e-06
-1.71247e-06
-1.71008e-06
-1.7078e-06
-1.7122e-06
-1.72796e-06
-1.72601e-06
-1.71999e-06
-1.69818e-06
-1.71235e-06
-1.71235e-06
-1.71235e-06
-1.71235e-06
-1.72487e-06
-1.72554e-06
-1.71247e-06
-1.71235e-06
-1.71235e-06
-1.71235e-06
-1.71235e-06
-1.71235e-06
-1.71235e-06
-1.74307e-06
-1.73708e-06
-1.72375e-06
-1.71008e-06
-1.71235e-06
-1.71235e-06
-1.71235e-06
-1.71235e-06
-1.71235e-06
-1.71235e-06
-1.75037e-06
-1.7361e-06
-1.72463e-06
-1.70779e-06
-1.71235e-06
-1.71235e-06
-1.71235e-06
-1.71235e-06
-1.71235e-06
-1.71235e-06
-1.75084e-06
-1.72687e-06
-1.7122e-06
-1.71235e-06
-1.71235e-06
-1.71235e-06
-1.71235e-06
-1.71235e-06
-1.71235e-06
-1.74832e-06
-1.74476e-06
-1.72796e-06
-1.72488e-06
-1.71235e-06
-1.71235e-06
-1.71235e-06
-1.71235e-06
-1.76158e-06
-1.73679e-06
-1.73319e-06
-1.72602e-06
-1.72554e-06
-1.74307e-06
-1.75037e-06
-1.75084e-06
-1.74834e-06
-1.73682e-06
-1.74574e-06
-1.73708e-06
-1.7361e-06
-1.72687e-06
-1.74477e-06
-1.7332e-06
-1.69835e-06
-1.69911e-06
-1.69445e-06
-1.68693e-06
-1.68454e-06
-1.68226e-06
-1.68666e-06
-1.70243e-06
-1.70047e-06
-1.69445e-06
-1.67264e-06
-1.68681e-06
-1.68681e-06
-1.68681e-06
-1.68681e-06
-1.69933e-06
-1.7e-06
-1.68693e-06
-1.68681e-06
-1.68681e-06
-1.68681e-06
-1.68681e-06
-1.68681e-06
-1.68681e-06
-1.71753e-06
-1.71154e-06
-1.69821e-06
-1.68454e-06
-1.68681e-06
-1.68681e-06
-1.68681e-06
-1.68681e-06
-1.68681e-06
-1.68681e-06
-1.72483e-06
-1.71056e-06
-1.69909e-06
-1.68225e-06
-1.68681e-06
-1.68681e-06
-1.68681e-06
-1.68681e-06
-1.68681e-06
-1.68681e-06
-1.7253e-06
-1.70133e-06
-1.68666e-06
-1.68681e-06
-1.68681e-06
-1.68681e-06
-1.68681e-06
-1.68681e-06
-1.68681e-06
-1.72278e-06
-1.71922e-06
-1.70242e-06
-1.69934e-06
-1.68681e-06
-1.68681e-06
-1.68681e-06
-1.68681e-06
-1.73604e-06
-1.71125e-06
-1.70765e-06
-1.70048e-06
-1.7e-06
-1.71753e-06
-1.72483e-06
-1.7253e-06
-1.7228e-06
-1.71128e-06
-1.7202e-06
-1.71154e-06
-1.71056e-06
-1.70133e-06
-1.71923e-06
-1.70766e-06
-1.67281e-06
-1.67357e-06
-1.66891e-06
-1.66139e-06
-1.659e-06
-1.65672e-06
-1.66112e-06
-1.67689e-06
-1.67493e-06
-1.66891e-06
-1.6471e-06
-1.66127e-06
-1.66127e-06
-1.66127e-06
-1.66127e-06
-1.67378e-06
-1.67446e-06
-1.66139e-06
-1.66127e-06
-1.66127e-06
-1.66127e-06
-1.66127e-06
-1.66127e-06
-1.66127e-06
-1.69199e-06
-1.686e-06
-1.67267e-06
-1.659e-06
-1.66127e-06
-1.66127e-06
-1.66127e-06
-1.66127e-06
-1.66127e-06
-1.66127e-06
-1.69929e-06
-1.68502e-06
-1.67355e-06
-1.65671e-06
-1.66127e-06
-1.66127e-06
-1.66127e-06
-1.66127e-06
-1.66127e-06
-1.66127e-06
-1.69976e-06
-1.67579e-06
-1.66111e-06
-1.66127e-06
-1.66127e-06
-1.66127e-06
-1.66127e-06
-1.66127e-06
-1.66127e-06
-1.69724e-06
-1.69368e-06
-1.67688e-06
-1.6738e-06
-1.66127e-06
-1.66127e-06
-1.66127e-06
-1.66127e-06
-1.7105e-06
-1.68571e-06
-1.68211e-06
-1.67494e-06
-1.67446e-06
-1.69199e-06
-1.69929e-06
-1.69976e-06
-1.69726e-06
-1.68574e-06
-1.69466e-06
-1.686e-06
-1.68502e-06
-1.67579e-06
-1.69369e-06
-1.68212e-06
-1.64726e-06
-1.64802e-06
-1.64337e-06
-1.63585e-06
-1.63346e-06
-1.63117e-06
-1.63558e-06
-1.65134e-06
-1.64939e-06
-1.64337e-06
-1.62155e-06
-1.63572e-06
-1.63572e-06
-1.63572e-06
-1.63572e-06
-1.64824e-06
-1.64892e-06
-1.63584e-06
-1.63572e-06
-1.63572e-06
-1.63572e-06
-1.63572e-06
-1.63572e-06
-1.63572e-06
-1.66645e-06
-1.66046e-06
-1.64712e-06
-1.63346e-06
-1.63572e-06
-1.63572e-06
-1.63572e-06
-1.63572e-06
-1.63572e-06
-1.63572e-06
-1.67374e-06
-1.65947e-06
-1.64801e-06
-1.63117e-06
-1.63572e-06
-1.63572e-06
-1.63572e-06
-1.63572e-06
-1.63572e-06
-1.63572e-06
-1.67421e-06
-1.65025e-06
-1.63557e-06
-1.63572e-06
-1.63572e-06
-1.63572e-06
-1.63572e-06
-1.63572e-06
-1.63572e-06
-1.67169e-06
-1.66814e-06
-1.65134e-06
-1.64825e-06
-1.63572e-06
-1.63572e-06
-1.63572e-06
-1.63572e-06
-1.68496e-06
-1.66017e-06
-1.65657e-06
-1.6494e-06
-1.64892e-06
-1.66645e-06
-1.67375e-06
-1.67422e-06
-1.67172e-06
-1.6602e-06
-1.66911e-06
-1.66046e-06
-1.65947e-06
-1.65024e-06
-1.66814e-06
-1.65658e-06
-1.62172e-06
-1.62248e-06
-1.61782e-06
-1.6103e-06
-1.60791e-06
-1.60563e-06
-1.61003e-06
-1.6258e-06
-1.62384e-06
-1.61782e-06
-1.59601e-06
-1.61018e-06
-1.61018e-06
-1.61018e-06
-1.61018e-06
-1.6227e-06
-1.62337e-06
-1.6103e-06
-1.61018e-06
-1.61018e-06
-1.61018e-06
-1.61018e-06
-1.61018e-06
-1.61018e-06
-1.6409e-06
-1.63491e-06
-1.62158e-06
-1.60791e-06
-1.61018e-06
-1.61018e-06
-1.61018e-06
-1.61018e-06
-1.61018e-06
-1.61018e-06
-1.6482e-06
-1.63393e-06
-1.62246e-06
-1.60562e-06
-1.61018e-06
-1.61018e-06
-1.61018e-06
-1.61018e-06
-1.61018e-06
-1.61018e-06
-1.64867e-06
-1.6247e-06
-1.61002e-06
-1.61018e-06
-1.61018e-06
-1.61018e-06
-1.61018e-06
-1.61018e-06
-1.61018e-06
-1.64615e-06
-1.64259e-06
-1.62579e-06
-1.62271e-06
-1.61018e-06
-1.61018e-06
-1.61018e-06
-1.61018e-06
-1.65941e-06
-1.63462e-06
-1.63102e-06
-1.62385e-06
-1.62337e-06
-1.6409e-06
-1.6482e-06
-1.64867e-06
-1.64617e-06
-1.63465e-06
-1.64357e-06
-1.63491e-06
-1.63393e-06
-1.6247e-06
-1.6426e-06
-1.63103e-06
-1.59617e-06
-1.59693e-06
-1.59227e-06
-1.58476e-06
-1.58236e-06
-1.58008e-06
-1.58448e-06
-1.60025e-06
-1.59829e-06
-1.59227e-06
-1.57046e-06
-1.58463e-06
-1.58463e-06
-1.58463e-06
-1.58463e-06
-1.59716e-06
-1.59783e-06
-1.58475e-06
-1.58463e-06
-1.58463e-06
-1.58463e-06
-1.58463e-06
-1.58463e-06
-1.58463e-06
-1.61535e-06
-1.60937e-06
-1.59603e-06
-1.58236e-06