/*--------------------------------*- C++ -*----------------------------------*\
| =========                 |                                                 |
| \\      /  F ield         | OpenFOAM: The Open Source CFD Toolbox           |
|  \\    /   O peration     | Version:  v2012                                 |
|   \\  /    A nd           | Website:  www.openfoam.com                      |
|    \\/     M anipulation  |                                                 |
\*---------------------------------------------------------------------------*/
FoamFile
{
    version     2.0;
    format      ascii;
    class       volScalarField;
    location    "0.21";
    object      p;
}
// * * * * * * * * * * * * * * * * * * * * * * * * * * * * * * * * * * * * * //

dimensions      [0 2 -2 0 0 0 0];


internalField   nonuniform List<scalar> 
189320
(
-1.58156e-07
-1.55445e-07
-1.66402e-07
-1.66969e-07
-1.71576e-07
-1.73064e-07
-1.69349e-07
-1.68327e-07
-1.69742e-07
-1.66414e-07
-1.72882e-07
-1.72695e-07
-1.74355e-07
-1.74749e-07
-1.7351e-07
-1.72669e-07
-1.68566e-07
-1.66979e-07
-1.72702e-07
-1.75251e-07
-1.76366e-07
-1.76589e-07
-1.75858e-07
-1.74027e-07
-1.72682e-07
-1.66945e-07
-1.58322e-07
-1.71574e-07
-1.74358e-07
-1.76367e-07
-1.77134e-07
-1.77262e-07
-1.76842e-07
-1.7554e-07
-1.72516e-07
-1.6659e-07
-1.55566e-07
-1.73084e-07
-1.74751e-07
-1.76584e-07
-1.77255e-07
-1.77373e-07
-1.7702e-07
-1.75904e-07
-1.72966e-07
-1.69156e-07
-1.69361e-07
-1.73504e-07
-1.75844e-07
-1.76828e-07
-1.77012e-07
-1.76429e-07
-1.74871e-07
-1.72448e-07
-1.56662e-07
-1.68327e-07
-1.72651e-07
-1.73999e-07
-1.75508e-07
-1.75879e-07
-1.74857e-07
-1.72715e-07
-1.72762e-07
-1.67151e-07
-1.69724e-07
-1.68529e-07
-1.72625e-07
-1.72462e-07
-1.7292e-07
-1.72416e-07
-1.7274e-07
-1.73736e-07
-1.66899e-07
-1.66491e-07
-1.69054e-07
-1.56602e-07
-1.67103e-07
-1.77938e-07
-1.78166e-07
-1.75708e-07
-1.75235e-07
-1.75102e-07
-1.7497e-07
-1.75334e-07
-1.79145e-07
-1.78188e-07
-1.75699e-07
-1.70986e-07
-1.8029e-07
-1.8152e-07
-1.81508e-07
-1.80257e-07
-1.79952e-07
-1.81167e-07
-1.75248e-07
-1.80353e-07
-1.84365e-07
-1.84045e-07
-1.84047e-07
-1.84336e-07
-1.80287e-07
-1.883e-07
-1.83995e-07
-1.77981e-07
-1.75129e-07
-1.81521e-07
-1.84047e-07
-1.83802e-07
-1.83802e-07
-1.84032e-07
-1.81529e-07
-1.8865e-07
-1.84449e-07
-1.78252e-07
-1.75094e-07
-1.81458e-07
-1.84008e-07
-1.83784e-07
-1.83783e-07
-1.84001e-07
-1.81478e-07
-1.88967e-07
-1.81764e-07
-1.75668e-07
-1.80044e-07
-1.84252e-07
-1.83993e-07
-1.84005e-07
-1.84257e-07
-1.80065e-07
-1.89763e-07
-1.88187e-07
-1.79264e-07
-1.7993e-07
-1.80245e-07
-1.81466e-07
-1.81466e-07
-1.80253e-07
-1.97112e-07
-1.86246e-07
-1.8166e-07
-1.78225e-07
-1.81139e-07
-1.88188e-07
-1.88502e-07
-1.88763e-07
-1.89017e-07
-1.86212e-07
-1.8798e-07
-1.83899e-07
-1.84319e-07
-1.8159e-07
-1.87947e-07
-1.81507e-07
-1.7683e-07
-1.7736e-07
-1.74596e-07
-1.73526e-07
-1.72822e-07
-1.72275e-07
-1.7365e-07
-1.78065e-07
-1.77399e-07
-1.74603e-07
-1.68474e-07
-1.77671e-07
-1.77915e-07
-1.77918e-07
-1.77673e-07
-1.78539e-07
-1.79546e-07
-1.73527e-07
-1.7767e-07
-1.79784e-07
-1.79879e-07
-1.79889e-07
-1.79783e-07
-1.77667e-07
-1.87623e-07
-1.83435e-07
-1.76835e-07
-1.72819e-07
-1.77907e-07
-1.79883e-07
-1.79886e-07
-1.79894e-07
-1.79881e-07
-1.77918e-07
-1.90584e-07
-1.83055e-07
-1.7736e-07
-1.72269e-07
-1.77898e-07
-1.79881e-07
-1.79888e-07
-1.79889e-07
-1.79875e-07
-1.77911e-07
-1.90746e-07
-1.80807e-07
-1.73644e-07
-1.77657e-07
-1.79771e-07
-1.7987e-07
-1.7988e-07
-1.79772e-07
-1.77653e-07
-1.9005e-07
-1.87401e-07
-1.78047e-07
-1.78522e-07
-1.77644e-07
-1.77895e-07
-1.779e-07
-1.77652e-07
-1.96008e-07
-1.85202e-07
-1.81518e-07
-1.7738e-07
-1.79527e-07
-1.87577e-07
-1.90547e-07
-1.90719e-07
-1.90023e-07
-1.85199e-07
-1.87485e-07
-1.834e-07
-1.83021e-07
-1.80777e-07
-1.8737e-07
-1.815e-07
-1.74962e-07
-1.75492e-07
-1.72761e-07
-1.71473e-07
-1.70661e-07
-1.69995e-07
-1.71659e-07
-1.76151e-07
-1.75627e-07
-1.72757e-07
-1.66078e-07
-1.75417e-07
-1.75476e-07
-1.75478e-07
-1.7542e-07
-1.76763e-07
-1.7776e-07
-1.7147e-07
-1.75416e-07
-1.76186e-07
-1.76254e-07
-1.76262e-07
-1.76187e-07
-1.75414e-07
-1.85861e-07
-1.81614e-07
-1.74954e-07
-1.70654e-07
-1.75467e-07
-1.76257e-07
-1.76304e-07
-1.76309e-07
-1.76258e-07
-1.75478e-07
-1.89191e-07
-1.81247e-07
-1.75484e-07
-1.69988e-07
-1.75469e-07
-1.7626e-07
-1.76308e-07
-1.76309e-07
-1.76256e-07
-1.75474e-07
-1.89327e-07
-1.78952e-07
-1.71655e-07
-1.7541e-07
-1.76185e-07
-1.76254e-07
-1.7626e-07
-1.76184e-07
-1.75417e-07
-1.88554e-07
-1.85612e-07
-1.76148e-07
-1.76754e-07
-1.75408e-07
-1.75465e-07
-1.75468e-07
-1.75412e-07
-1.9463e-07
-1.83211e-07
-1.79779e-07
-1.7561e-07
-1.77748e-07
-1.85847e-07
-1.8918e-07
-1.89324e-07
-1.88567e-07
-1.83217e-07
-1.85771e-07
-1.81598e-07
-1.81243e-07
-1.78939e-07
-1.85609e-07
-1.79775e-07
-1.72766e-07
-1.73298e-07
-1.70602e-07
-1.69223e-07
-1.68313e-07
-1.67635e-07
-1.69458e-07
-1.73974e-07
-1.73473e-07
-1.70607e-07
-1.63723e-07
-1.731e-07
-1.73114e-07
-1.73115e-07
-1.73101e-07
-1.74621e-07
-1.75612e-07
-1.69231e-07
-1.73099e-07
-1.73376e-07
-1.734e-07
-1.73403e-07
-1.73377e-07
-1.731e-07
-1.83696e-07
-1.7945e-07
-1.72757e-07
-1.68307e-07
-1.73114e-07
-1.734e-07
-1.73417e-07
-1.7342e-07
-1.734e-07
-1.73113e-07
-1.87082e-07
-1.79063e-07
-1.73286e-07
-1.6763e-07
-1.73114e-07
-1.734e-07
-1.73419e-07
-1.73421e-07
-1.73399e-07
-1.73114e-07
-1.87187e-07
-1.76748e-07
-1.69447e-07
-1.73099e-07
-1.73376e-07
-1.734e-07
-1.73403e-07
-1.73377e-07
-1.73099e-07
-1.863e-07
-1.83452e-07
-1.73962e-07
-1.74613e-07
-1.73098e-07
-1.73113e-07
-1.73113e-07
-1.73099e-07
-1.92583e-07
-1.81005e-07
-1.77645e-07
-1.73477e-07
-1.75617e-07
-1.83693e-07
-1.8708e-07
-1.87192e-07
-1.86313e-07
-1.81028e-07
-1.83659e-07
-1.79444e-07
-1.79063e-07
-1.7675e-07
-1.83452e-07
-1.77647e-07
-1.70448e-07
-1.70979e-07
-1.68294e-07
-1.66901e-07
-1.6594e-07
-1.6526e-07
-1.67137e-07
-1.71663e-07
-1.71189e-07
-1.68297e-07
-1.61341e-07
-1.70749e-07
-1.70752e-07
-1.70752e-07
-1.7075e-07
-1.72323e-07
-1.73326e-07
-1.66901e-07
-1.70752e-07
-1.70851e-07
-1.70862e-07
-1.70861e-07
-1.70851e-07
-1.70751e-07
-1.81384e-07
-1.77134e-07
-1.70445e-07
-1.65937e-07
-1.70753e-07
-1.70861e-07
-1.70866e-07
-1.70865e-07
-1.70861e-07
-1.70753e-07
-1.84784e-07
-1.76753e-07
-1.70975e-07
-1.65259e-07
-1.70751e-07
-1.70861e-07
-1.70866e-07
-1.70864e-07
-1.7086e-07
-1.70753e-07
-1.84885e-07
-1.74432e-07
-1.67139e-07
-1.7075e-07
-1.7085e-07
-1.7086e-07
-1.7086e-07
-1.70849e-07
-1.7075e-07
-1.83964e-07
-1.81149e-07
-1.7167e-07
-1.72326e-07
-1.70749e-07
-1.70751e-07
-1.70753e-07
-1.70751e-07
-1.90332e-07
-1.78702e-07
-1.7535e-07
-1.71182e-07
-1.7332e-07
-1.81383e-07
-1.84787e-07
-1.84892e-07
-1.8398e-07
-1.78726e-07
-1.81385e-07
-1.77143e-07
-1.76753e-07
-1.74435e-07
-1.81152e-07
-1.75357e-07
-1.68094e-07
-1.68625e-07
-1.65953e-07
-1.64541e-07
-1.63555e-07
-1.62885e-07
-1.64795e-07
-1.69317e-07
-1.68847e-07
-1.65955e-07
-1.58971e-07
-1.68394e-07
-1.68385e-07
-1.68387e-07
-1.68393e-07
-1.69981e-07
-1.70987e-07
-1.6454e-07
-1.68388e-07
-1.68425e-07
-1.68428e-07
-1.68428e-07
-1.68424e-07
-1.68385e-07
-1.79041e-07
-1.74797e-07
-1.68094e-07
-1.63553e-07
-1.68384e-07
-1.68429e-07
-1.6843e-07
-1.6843e-07
-1.68429e-07
-1.68388e-07
-1.82442e-07
-1.74406e-07
-1.68624e-07
-1.62887e-07
-1.68387e-07
-1.68429e-07
-1.68431e-07
-1.68429e-07
-1.68429e-07
-1.68387e-07
-1.82534e-07
-1.72082e-07
-1.64799e-07
-1.68387e-07
-1.68424e-07
-1.68428e-07
-1.68427e-07
-1.68423e-07
-1.68388e-07
-1.81612e-07
-1.78812e-07
-1.69323e-07
-1.69983e-07
-1.68389e-07
-1.68388e-07
-1.68389e-07
-1.68389e-07
-1.88006e-07
-1.76362e-07
-1.73017e-07
-1.68842e-07
-1.70983e-07
-1.79038e-07
-1.82443e-07
-1.82532e-07
-1.81618e-07
-1.76373e-07
-1.7904e-07
-1.74807e-07
-1.74403e-07
-1.7208e-07
-1.78814e-07
-1.73013e-07
-1.6573e-07
-1.66261e-07
-1.63592e-07
-1.62176e-07
-1.61184e-07
-1.60519e-07
-1.62436e-07
-1.66957e-07
-1.66491e-07
-1.63594e-07
-1.56599e-07
-1.66022e-07
-1.66026e-07
-1.66026e-07
-1.66022e-07
-1.67621e-07
-1.68629e-07
-1.62176e-07
-1.66025e-07
-1.66035e-07
-1.66037e-07
-1.66038e-07
-1.66033e-07
-1.66024e-07
-1.76675e-07
-1.72437e-07
-1.65731e-07
-1.61183e-07
-1.66025e-07
-1.66036e-07
-1.66038e-07
-1.66039e-07
-1.66035e-07
-1.66024e-07
-1.80076e-07
-1.72043e-07
-1.66261e-07
-1.60519e-07
-1.66024e-07
-1.66036e-07
-1.66038e-07
-1.66039e-07
-1.66036e-07
-1.66023e-07
-1.80165e-07
-1.69717e-07
-1.62439e-07
-1.66023e-07
-1.66033e-07
-1.66035e-07
-1.66036e-07
-1.66034e-07
-1.66023e-07
-1.79238e-07
-1.76452e-07
-1.66963e-07
-1.67623e-07
-1.66023e-07
-1.66025e-07
-1.66024e-07
-1.66022e-07
-1.85656e-07
-1.74006e-07
-1.70658e-07
-1.66484e-07
-1.68625e-07
-1.76676e-07
-1.80081e-07
-1.8017e-07
-1.79252e-07
-1.74017e-07
-1.76683e-07
-1.72446e-07
-1.72044e-07
-1.69716e-07
-1.76455e-07
-1.70661e-07
-1.63366e-07
-1.63896e-07
-1.61227e-07
-1.59811e-07
-1.58816e-07
-1.58149e-07
-1.60069e-07
-1.64591e-07
-1.64128e-07
-1.6123e-07
-1.54228e-07
-1.63656e-07
-1.63655e-07
-1.63655e-07
-1.63654e-07
-1.65258e-07
-1.66268e-07
-1.59809e-07
-1.63652e-07
-1.63662e-07
-1.63664e-07
-1.63663e-07
-1.63662e-07
-1.63659e-07
-1.74314e-07
-1.70074e-07
-1.63366e-07
-1.58814e-07
-1.63655e-07
-1.63664e-07
-1.63664e-07
-1.63664e-07
-1.63662e-07
-1.63658e-07
-1.77716e-07
-1.69679e-07
-1.63896e-07
-1.58149e-07
-1.63655e-07
-1.63661e-07
-1.63661e-07
-1.63663e-07
-1.63662e-07
-1.63657e-07
-1.77802e-07
-1.67355e-07
-1.60073e-07
-1.63657e-07
-1.63665e-07
-1.63667e-07
-1.63664e-07
-1.63663e-07
-1.63655e-07
-1.76873e-07
-1.74086e-07
-1.64597e-07
-1.6526e-07
-1.63651e-07
-1.63653e-07
-1.63654e-07
-1.63652e-07
-1.83291e-07
-1.71641e-07
-1.68293e-07
-1.6412e-07
-1.66262e-07
-1.74312e-07
-1.77718e-07
-1.77806e-07
-1.76888e-07
-1.71652e-07
-1.74321e-07
-1.7008e-07
-1.69678e-07
-1.67352e-07
-1.74089e-07
-1.68294e-07
-1.60999e-07
-1.61529e-07
-1.58861e-07
-1.57442e-07
-1.56445e-07
-1.5578e-07
-1.57704e-07
-1.62226e-07
-1.61762e-07
-1.58863e-07
-1.5186e-07
-1.61288e-07
-1.61288e-07
-1.61289e-07
-1.61289e-07
-1.62893e-07
-1.63902e-07
-1.57441e-07
-1.61289e-07
-1.61292e-07
-1.61293e-07
-1.61292e-07
-1.61291e-07
-1.61289e-07
-1.71948e-07
-1.67708e-07
-1.61e-07
-1.56446e-07
-1.61288e-07
-1.61289e-07
-1.61292e-07
-1.6129e-07
-1.61292e-07
-1.61289e-07
-1.7535e-07
-1.67313e-07
-1.6153e-07
-1.55781e-07
-1.61289e-07
-1.61293e-07
-1.61293e-07
-1.61291e-07
-1.61295e-07
-1.61289e-07
-1.75436e-07
-1.64988e-07
-1.57709e-07
-1.61286e-07
-1.61291e-07
-1.61291e-07
-1.6129e-07
-1.61291e-07
-1.61287e-07
-1.74507e-07
-1.71722e-07
-1.62232e-07
-1.62898e-07
-1.61289e-07
-1.61289e-07
-1.61289e-07
-1.61289e-07
-1.80926e-07
-1.69277e-07
-1.65929e-07
-1.61755e-07
-1.63897e-07
-1.71947e-07
-1.75356e-07
-1.7544e-07
-1.74522e-07
-1.69288e-07
-1.71957e-07
-1.67716e-07
-1.67313e-07
-1.64987e-07
-1.71726e-07
-1.65931e-07
-1.58627e-07
-1.59159e-07
-1.56502e-07
-1.55059e-07
-1.54072e-07
-1.53411e-07
-1.55337e-07
-1.59856e-07
-1.59396e-07
-1.56502e-07
-1.49502e-07
-1.58922e-07
-1.58922e-07
-1.58922e-07
-1.58922e-07
-1.60527e-07
-1.61537e-07
-1.55077e-07
-1.58923e-07
-1.58922e-07
-1.58922e-07
-1.58922e-07
-1.58922e-07
-1.58924e-07
-1.6958e-07
-1.65341e-07
-1.58634e-07
-1.54079e-07
-1.58922e-07
-1.58923e-07
-1.58923e-07
-1.58923e-07
-1.58923e-07
-1.58923e-07
-1.72982e-07
-1.64946e-07
-1.59163e-07
-1.53415e-07
-1.58923e-07
-1.58923e-07
-1.58923e-07
-1.58923e-07
-1.58923e-07
-1.58923e-07
-1.73067e-07
-1.6262e-07
-1.55344e-07
-1.58923e-07
-1.58922e-07
-1.58923e-07
-1.58923e-07
-1.58922e-07
-1.58923e-07
-1.72139e-07
-1.69355e-07
-1.59865e-07
-1.60532e-07
-1.58923e-07
-1.58923e-07
-1.58923e-07
-1.58923e-07
-1.78558e-07
-1.66909e-07
-1.63562e-07
-1.59389e-07
-1.61531e-07
-1.6958e-07
-1.72989e-07
-1.73073e-07
-1.72154e-07
-1.6692e-07
-1.6959e-07
-1.65349e-07
-1.64947e-07
-1.6262e-07
-1.69359e-07
-1.63564e-07
-1.56264e-07
-1.56795e-07
-1.54141e-07
-1.52694e-07
-1.51708e-07
-1.51048e-07
-1.52978e-07
-1.57497e-07
-1.57023e-07
-1.54134e-07
-1.47133e-07
-1.56556e-07
-1.56556e-07
-1.56556e-07
-1.56556e-07
-1.58163e-07
-1.59165e-07
-1.5271e-07
-1.56556e-07
-1.56556e-07
-1.56556e-07
-1.56556e-07
-1.56556e-07
-1.56556e-07
-1.67212e-07
-1.62974e-07
-1.56267e-07
-1.51711e-07
-1.56556e-07
-1.56556e-07
-1.56556e-07
-1.56556e-07
-1.56556e-07
-1.56556e-07
-1.70613e-07
-1.62579e-07
-1.56797e-07
-1.51047e-07
-1.56556e-07
-1.56556e-07
-1.56556e-07
-1.56556e-07
-1.56556e-07
-1.56556e-07
-1.70699e-07
-1.60253e-07
-1.52978e-07
-1.56556e-07
-1.56556e-07
-1.56556e-07
-1.56556e-07
-1.56556e-07
-1.56556e-07
-1.69773e-07
-1.66989e-07
-1.575e-07
-1.58167e-07
-1.56556e-07
-1.56557e-07
-1.56557e-07
-1.56556e-07
-1.76193e-07
-1.64543e-07
-1.61196e-07
-1.57023e-07
-1.59166e-07
-1.67215e-07
-1.70622e-07
-1.70707e-07
-1.69788e-07
-1.64555e-07
-1.67224e-07
-1.62984e-07
-1.6258e-07
-1.60254e-07
-1.66994e-07
-1.61199e-07
-1.53897e-07
-1.54429e-07
-1.5177e-07
-1.50328e-07
-1.49341e-07
-1.48681e-07
-1.50612e-07
-1.55132e-07
-1.54656e-07
-1.51767e-07
-1.44765e-07
-1.54189e-07
-1.54189e-07
-1.54189e-07
-1.54189e-07
-1.55797e-07
-1.56798e-07
-1.50343e-07
-1.54189e-07
-1.5419e-07
-1.5419e-07
-1.5419e-07
-1.5419e-07
-1.54189e-07
-1.64845e-07
-1.60607e-07
-1.53901e-07
-1.49344e-07
-1.54189e-07
-1.5419e-07
-1.54189e-07
-1.54189e-07
-1.5419e-07
-1.54189e-07
-1.68247e-07
-1.60212e-07
-1.5443e-07
-1.4868e-07
-1.54189e-07
-1.5419e-07
-1.5419e-07
-1.5419e-07
-1.5419e-07
-1.54189e-07
-1.68333e-07
-1.57886e-07
-1.50612e-07
-1.54189e-07
-1.5419e-07
-1.54189e-07
-1.54189e-07
-1.5419e-07
-1.54189e-07
-1.67406e-07
-1.64622e-07
-1.55133e-07
-1.558e-07
-1.54189e-07
-1.54189e-07
-1.54189e-07
-1.54189e-07
-1.73827e-07
-1.62177e-07
-1.5883e-07
-1.54657e-07
-1.56799e-07
-1.64849e-07
-1.68256e-07
-1.68342e-07
-1.67422e-07
-1.62188e-07
-1.64858e-07
-1.60618e-07
-1.60214e-07
-1.57888e-07
-1.64627e-07
-1.58832e-07
-1.51531e-07
-1.52062e-07
-1.49406e-07
-1.47961e-07
-1.46975e-07
-1.46314e-07
-1.48245e-07
-1.52765e-07
-1.52289e-07
-1.494e-07
-1.42398e-07
-1.51822e-07
-1.51822e-07
-1.51822e-07
-1.51822e-07
-1.5343e-07
-1.54431e-07
-1.47976e-07
-1.51822e-07
-1.51822e-07
-1.51822e-07
-1.51822e-07
-1.51822e-07
-1.51822e-07
-1.62478e-07
-1.58239e-07
-1.51534e-07
-1.46977e-07
-1.51822e-07
-1.51822e-07
-1.51822e-07
-1.51822e-07
-1.51822e-07
-1.51822e-07
-1.65879e-07
-1.57845e-07
-1.52063e-07
-1.46313e-07
-1.51822e-07
-1.51822e-07
-1.51822e-07
-1.51822e-07
-1.51822e-07
-1.51822e-07
-1.65966e-07
-1.55519e-07
-1.48245e-07
-1.51823e-07
-1.51822e-07
-1.51822e-07
-1.51822e-07
-1.51822e-07
-1.51822e-07
-1.65039e-07
-1.62255e-07
-1.52766e-07
-1.53433e-07
-1.51823e-07
-1.51822e-07
-1.51822e-07
-1.51823e-07
-1.7146e-07
-1.5981e-07
-1.56463e-07
-1.5229e-07
-1.54433e-07
-1.62481e-07
-1.65889e-07
-1.65975e-07
-1.65055e-07
-1.59821e-07
-1.62491e-07
-1.58251e-07
-1.57847e-07
-1.55521e-07
-1.6226e-07
-1.56465e-07
-1.49164e-07
-1.49695e-07
-1.47038e-07
-1.45595e-07
-1.44608e-07
-1.43947e-07
-1.45878e-07
-1.50397e-07
-1.49921e-07
-1.47033e-07
-1.40031e-07
-1.49455e-07
-1.49455e-07
-1.49455e-07
-1.49455e-07
-1.51062e-07
-1.52063e-07
-1.45609e-07
-1.49455e-07
-1.49455e-07
-1.49455e-07
-1.49455e-07
-1.49455e-07
-1.49455e-07
-1.60111e-07
-1.55872e-07
-1.49167e-07
-1.4461e-07
-1.49455e-07
-1.49455e-07
-1.49455e-07
-1.49455e-07
-1.49455e-07
-1.49455e-07
-1.63512e-07
-1.55478e-07
-1.49696e-07
-1.43946e-07
-1.49455e-07
-1.49455e-07
-1.49455e-07
-1.49455e-07
-1.49455e-07
-1.49455e-07
-1.63598e-07
-1.53152e-07
-1.45878e-07
-1.49455e-07
-1.49455e-07
-1.49455e-07
-1.49455e-07
-1.49455e-07
-1.49455e-07
-1.62672e-07
-1.59888e-07
-1.50399e-07
-1.51066e-07
-1.49455e-07
-1.49455e-07
-1.49455e-07
-1.49455e-07
-1.69093e-07
-1.57443e-07
-1.54096e-07
-1.49922e-07
-1.52065e-07
-1.60114e-07
-1.63522e-07
-1.63608e-07
-1.62688e-07
-1.57454e-07
-1.60124e-07
-1.55883e-07
-1.5548e-07
-1.53154e-07
-1.59893e-07
-1.54098e-07
-1.46798e-07
-1.47329e-07
-1.44672e-07
-1.43228e-07
-1.42242e-07
-1.41581e-07
-1.43512e-07
-1.48032e-07
-1.47555e-07
-1.44666e-07
-1.37666e-07
-1.47089e-07
-1.47089e-07
-1.47088e-07
-1.47088e-07
-1.48696e-07
-1.49697e-07
-1.43242e-07
-1.47088e-07
-1.47088e-07
-1.47088e-07
-1.47088e-07
-1.47088e-07
-1.47088e-07
-1.57744e-07
-1.53506e-07
-1.46799e-07
-1.42243e-07
-1.47088e-07
-1.47088e-07
-1.47088e-07
-1.47088e-07
-1.47088e-07
-1.47088e-07
-1.61145e-07
-1.53111e-07
-1.47329e-07
-1.41579e-07
-1.47088e-07
-1.47088e-07
-1.47088e-07
-1.47088e-07
-1.47088e-07
-1.47088e-07
-1.61232e-07
-1.50785e-07
-1.43511e-07
-1.47088e-07
-1.47088e-07
-1.47088e-07
-1.47088e-07
-1.47088e-07
-1.47088e-07
-1.60305e-07
-1.57521e-07
-1.48032e-07
-1.48699e-07
-1.47088e-07
-1.47088e-07
-1.47088e-07
-1.47088e-07
-1.66726e-07
-1.55076e-07
-1.51729e-07
-1.47555e-07
-1.49698e-07
-1.57747e-07
-1.61155e-07
-1.61242e-07
-1.60321e-07
-1.55087e-07
-1.57757e-07
-1.53516e-07
-1.53113e-07
-1.50786e-07
-1.57526e-07
-1.51731e-07
-1.4443e-07
-1.44962e-07
-1.42306e-07
-1.40859e-07
-1.39874e-07
-1.39214e-07
-1.41145e-07
-1.45662e-07
-1.45188e-07
-1.423e-07
-1.35299e-07
-1.44721e-07
-1.44721e-07
-1.44721e-07
-1.44721e-07
-1.46329e-07
-1.4733e-07
-1.40875e-07
-1.44721e-07
-1.44721e-07
-1.44721e-07
-1.44721e-07
-1.44721e-07
-1.44721e-07
-1.55377e-07
-1.51139e-07
-1.44433e-07
-1.39876e-07
-1.44721e-07
-1.44721e-07
-1.44721e-07
-1.44721e-07
-1.44721e-07
-1.44721e-07
-1.58778e-07
-1.50744e-07
-1.44962e-07
-1.39212e-07
-1.44721e-07
-1.44721e-07
-1.44721e-07
-1.44721e-07
-1.44721e-07
-1.44721e-07
-1.58864e-07
-1.48418e-07
-1.41143e-07
-1.44721e-07
-1.44721e-07
-1.44721e-07
-1.44721e-07
-1.44721e-07
-1.44721e-07
-1.57938e-07
-1.55154e-07
-1.45665e-07
-1.46331e-07
-1.44721e-07
-1.44721e-07
-1.44721e-07
-1.44721e-07
-1.64358e-07
-1.52708e-07
-1.49361e-07
-1.45188e-07
-1.4733e-07
-1.5538e-07
-1.58787e-07
-1.58874e-07
-1.57953e-07
-1.5272e-07
-1.55389e-07
-1.51149e-07
-1.50745e-07
-1.48418e-07
-1.55159e-07
-1.49364e-07
-1.42063e-07
-1.42594e-07
-1.39938e-07
-1.38493e-07
-1.37507e-07
-1.36846e-07
-1.38778e-07
-1.43295e-07
-1.42821e-07
-1.39932e-07
-1.32931e-07
-1.42354e-07
-1.42354e-07
-1.42354e-07
-1.42354e-07
-1.43962e-07
-1.44962e-07
-1.38508e-07
-1.42354e-07
-1.42354e-07
-1.42354e-07
-1.42354e-07
-1.42354e-07
-1.42354e-07
-1.53012e-07
-1.48771e-07
-1.42066e-07
-1.37509e-07
-1.42354e-07
-1.42354e-07
-1.42354e-07
-1.42354e-07
-1.42354e-07
-1.42354e-07
-1.56411e-07
-1.48377e-07
-1.42595e-07
-1.36845e-07
-1.42354e-07
-1.42354e-07
-1.42354e-07
-1.42354e-07
-1.42354e-07
-1.42354e-07
-1.56497e-07
-1.46051e-07
-1.38776e-07
-1.42354e-07
-1.42354e-07
-1.42354e-07
-1.42354e-07
-1.42354e-07
-1.42354e-07
-1.55571e-07
-1.52787e-07
-1.43297e-07
-1.43964e-07
-1.42354e-07
-1.42354e-07
-1.42354e-07
-1.42354e-07
-1.61991e-07
-1.50341e-07
-1.46994e-07
-1.4282e-07
-1.44963e-07
-1.53012e-07
-1.56419e-07
-1.56504e-07
-1.55586e-07
-1.50353e-07
-1.53022e-07
-1.48781e-07
-1.48378e-07
-1.46051e-07
-1.52792e-07
-1.46996e-07
-1.39696e-07
-1.40227e-07
-1.37571e-07
-1.36126e-07
-1.3514e-07
-1.34479e-07
-1.3641e-07
-1.40931e-07
-1.40454e-07
-1.37566e-07
-1.30565e-07
-1.39988e-07
-1.39988e-07
-1.39988e-07
-1.39988e-07
-1.41595e-07
-1.42596e-07
-1.36142e-07
-1.39988e-07
-1.39988e-07
-1.39988e-07
-1.39988e-07
-1.39988e-07
-1.39988e-07
-1.50645e-07
-1.46405e-07
-1.39699e-07
-1.35143e-07
-1.39988e-07
-1.39988e-07
-1.39988e-07
-1.39988e-07
-1.39988e-07
-1.39988e-07
-1.54045e-07
-1.4601e-07
-1.40228e-07
-1.34478e-07
-1.39988e-07
-1.39988e-07
-1.39988e-07
-1.39988e-07
-1.39988e-07
-1.39988e-07
-1.54131e-07
-1.43684e-07
-1.3641e-07
-1.39988e-07
-1.39988e-07
-1.39988e-07
-1.39988e-07
-1.39988e-07
-1.39988e-07
-1.53204e-07
-1.5042e-07
-1.40931e-07
-1.41598e-07
-1.39988e-07
-1.39988e-07
-1.39988e-07
-1.39988e-07
-1.59625e-07
-1.47975e-07
-1.44627e-07
-1.40454e-07
-1.42597e-07
-1.50646e-07
-1.54054e-07
-1.5414e-07
-1.5322e-07
-1.47986e-07
-1.50656e-07
-1.46415e-07
-1.46012e-07
-1.43687e-07
-1.50426e-07
-1.4463e-07
-1.3733e-07
-1.37861e-07
-1.35205e-07
-1.3376e-07
-1.32774e-07
-1.32113e-07
-1.34045e-07
-1.38565e-07
-1.38087e-07
-1.352e-07
-1.28199e-07
-1.37622e-07
-1.37622e-07
-1.37622e-07
-1.37622e-07
-1.39229e-07
-1.4023e-07
-1.33776e-07
-1.37622e-07
-1.37622e-07
-1.37622e-07
-1.37622e-07
-1.37622e-07
-1.37622e-07
-1.48279e-07
-1.4404e-07
-1.37333e-07
-1.32777e-07
-1.37622e-07
-1.37622e-07
-1.37622e-07
-1.37622e-07
-1.37622e-07
-1.37622e-07
-1.51679e-07
-1.43645e-07
-1.37862e-07
-1.32113e-07
-1.37622e-07
-1.37622e-07
-1.37622e-07
-1.37622e-07
-1.37622e-07
-1.37622e-07
-1.51765e-07
-1.41319e-07
-1.34044e-07
-1.37622e-07
-1.37622e-07
-1.37622e-07
-1.37622e-07
-1.37622e-07
-1.37622e-07
-1.50838e-07
-1.48055e-07
-1.38565e-07
-1.39232e-07
-1.37622e-07
-1.37622e-07
-1.37622e-07
-1.37622e-07
-1.57259e-07
-1.45609e-07
-1.42262e-07
-1.38088e-07
-1.40231e-07
-1.4828e-07
-1.51685e-07
-1.51771e-07
-1.50853e-07
-1.4562e-07
-1.4829e-07
-1.4405e-07
-1.43646e-07
-1.4132e-07
-1.48062e-07
-1.42264e-07
-1.34964e-07
-1.35495e-07
-1.32839e-07
-1.31394e-07
-1.30408e-07
-1.29747e-07
-1.31677e-07
-1.36199e-07
-1.35721e-07
-1.32834e-07
-1.25832e-07
-1.35255e-07
-1.35255e-07
-1.35255e-07
-1.35256e-07
-1.36862e-07
-1.37864e-07
-1.31409e-07
-1.35255e-07
-1.35255e-07
-1.35255e-07
-1.35255e-07
-1.35255e-07
-1.35256e-07
-1.45913e-07
-1.41673e-07
-1.34966e-07
-1.3041e-07
-1.35255e-07
-1.35255e-07
-1.35255e-07
-1.35255e-07
-1.35255e-07
-1.35256e-07
-1.49312e-07
-1.41278e-07
-1.35496e-07
-1.29746e-07
-1.35255e-07
-1.35255e-07
-1.35255e-07
-1.35255e-07
-1.35255e-07
-1.35256e-07
-1.49399e-07
-1.38952e-07
-1.31678e-07
-1.35256e-07
-1.35255e-07
-1.35255e-07
-1.35255e-07
-1.35255e-07
-1.35256e-07
-1.48472e-07
-1.45688e-07
-1.36199e-07
-1.36866e-07
-1.35256e-07
-1.35256e-07
-1.35256e-07
-1.35256e-07
-1.54893e-07
-1.43243e-07
-1.39896e-07
-1.35723e-07
-1.37865e-07
-1.45914e-07
-1.49319e-07
-1.49406e-07
-1.48488e-07
-1.43254e-07
-1.45924e-07
-1.41683e-07
-1.4128e-07
-1.38954e-07
-1.45695e-07
-1.39898e-07
-1.32597e-07
-1.33129e-07
-1.30472e-07
-1.2903e-07
-1.28041e-07
-1.27381e-07
-1.29311e-07
-1.33833e-07
-1.33355e-07
-1.30465e-07
-1.23464e-07
-1.32888e-07
-1.32889e-07
-1.32889e-07
-1.32889e-07
-1.34495e-07
-1.35497e-07
-1.29042e-07
-1.32888e-07
-1.32889e-07
-1.32889e-07
-1.32889e-07
-1.32889e-07
-1.32889e-07
-1.43546e-07
-1.39306e-07
-1.326e-07
-1.28044e-07
-1.32889e-07
-1.32889e-07
-1.32889e-07
-1.32889e-07
-1.32889e-07
-1.32889e-07
-1.46945e-07
-1.38911e-07
-1.33129e-07
-1.2738e-07
-1.32889e-07
-1.32889e-07
-1.32889e-07
-1.32889e-07
-1.32889e-07
-1.32889e-07
-1.47032e-07
-1.36585e-07
-1.29311e-07
-1.32889e-07
-1.32889e-07
-1.32889e-07
-1.32889e-07
-1.32889e-07
-1.32889e-07
-1.46106e-07
-1.43322e-07
-1.33833e-07
-1.345e-07
-1.32889e-07
-1.32889e-07
-1.32889e-07
-1.32889e-07
-1.52526e-07
-1.40876e-07
-1.37529e-07
-1.33356e-07
-1.35499e-07
-1.43548e-07
-1.46953e-07
-1.47039e-07
-1.46121e-07
-1.40888e-07
-1.43557e-07
-1.39317e-07
-1.38914e-07
-1.36588e-07
-1.43328e-07
-1.37529e-07
-1.30231e-07
-1.30762e-07
-1.28104e-07
-1.26665e-07
-1.25675e-07
-1.25014e-07
-1.26944e-07
-1.31467e-07
-1.30988e-07
-1.28099e-07
-1.21098e-07
-1.30522e-07
-1.30522e-07
-1.30522e-07
-1.30522e-07
-1.32128e-07
-1.3313e-07
-1.26676e-07
-1.30522e-07
-1.30522e-07
-1.30522e-07
-1.30522e-07
-1.30522e-07
-1.30522e-07
-1.41179e-07
-1.36939e-07
-1.30234e-07
-1.25677e-07
-1.30522e-07
-1.30522e-07
-1.30522e-07
-1.30522e-07
-1.30522e-07
-1.30522e-07
-1.44579e-07
-1.36544e-07
-1.30763e-07
-1.25013e-07
-1.30522e-07
-1.30522e-07
-1.30522e-07
-1.30522e-07
-1.30522e-07
-1.30522e-07
-1.44665e-07
-1.34219e-07
-1.26945e-07
-1.30523e-07
-1.30522e-07
-1.30522e-07
-1.30522e-07
-1.30522e-07
-1.30522e-07
-1.43739e-07
-1.40955e-07
-1.31466e-07
-1.32133e-07
-1.30523e-07
-1.30523e-07
-1.30522e-07
-1.30522e-07
-1.50159e-07
-1.38509e-07
-1.35162e-07
-1.30989e-07
-1.33132e-07
-1.41181e-07
-1.44586e-07
-1.44673e-07
-1.43755e-07
-1.38521e-07
-1.4119e-07
-1.3695e-07
-1.36547e-07
-1.34222e-07
-1.40962e-07
-1.35163e-07
-1.27864e-07
-1.28395e-07
-1.25739e-07
-1.24298e-07
-1.23308e-07
-1.22647e-07
-1.24577e-07
-1.291e-07
-1.28622e-07
-1.25734e-07
-1.18732e-07
-1.28156e-07
-1.28155e-07
-1.28155e-07
-1.28155e-07
-1.2976e-07
-1.30763e-07
-1.2431e-07
-1.28156e-07
-1.28156e-07
-1.28156e-07
-1.28156e-07
-1.28156e-07
-1.28156e-07
-1.38812e-07
-1.34573e-07
-1.27868e-07
-1.23312e-07
-1.28156e-07
-1.28156e-07
-1.28156e-07
-1.28156e-07
-1.28156e-07
-1.28156e-07
-1.42212e-07
-1.34178e-07
-1.28397e-07
-1.22647e-07
-1.28156e-07
-1.28156e-07
-1.28156e-07
-1.28156e-07
-1.28156e-07
-1.28156e-07
-1.42299e-07
-1.31852e-07
-1.24579e-07
-1.28156e-07
-1.28156e-07
-1.28156e-07
-1.28156e-07
-1.28156e-07
-1.28156e-07
-1.41372e-07
-1.38588e-07
-1.291e-07
-1.29767e-07
-1.28156e-07
-1.28156e-07
-1.28156e-07
-1.28156e-07
-1.47793e-07
-1.36143e-07
-1.32796e-07
-1.28623e-07
-1.30766e-07
-1.38815e-07
-1.4222e-07
-1.42306e-07
-1.41389e-07
-1.36155e-07
-1.38824e-07
-1.34585e-07
-1.34181e-07
-1.31856e-07
-1.38595e-07
-1.32797e-07
-1.25498e-07
-1.26029e-07
-1.23371e-07
-1.21933e-07
-1.20942e-07
-1.20281e-07
-1.2221e-07
-1.26732e-07
-1.26255e-07
-1.23366e-07
-1.16364e-07
-1.25789e-07
-1.25789e-07
-1.25789e-07
-1.25788e-07
-1.27394e-07
-1.28396e-07
-1.21943e-07
-1.25789e-07
-1.25789e-07
-1.25789e-07
-1.25789e-07
-1.25789e-07
-1.25789e-07
-1.36446e-07
-1.32206e-07
-1.25501e-07
-1.20945e-07
-1.25789e-07
-1.25789e-07
-1.25789e-07
-1.25789e-07
-1.25789e-07
-1.25789e-07
-1.39845e-07
-1.31811e-07
-1.2603e-07
-1.2028e-07
-1.25789e-07
-1.25789e-07
-1.25789e-07
-1.25789e-07
-1.25789e-07
-1.25789e-07
-1.39932e-07
-1.29485e-07
-1.22212e-07
-1.25789e-07
-1.25789e-07
-1.25789e-07
-1.25789e-07
-1.25789e-07
-1.25789e-07
-1.39005e-07
-1.36222e-07
-1.26733e-07
-1.274e-07
-1.25789e-07
-1.25789e-07
-1.25789e-07
-1.25789e-07
-1.45426e-07
-1.33776e-07
-1.30429e-07
-1.26257e-07
-1.28399e-07
-1.36448e-07
-1.39853e-07
-1.39939e-07
-1.39022e-07
-1.33788e-07
-1.36457e-07
-1.32218e-07
-1.31814e-07
-1.29489e-07
-1.36229e-07
-1.3043e-07
-1.23131e-07
-1.23661e-07
-1.21003e-07
-1.19567e-07
-1.18575e-07
-1.17914e-07
-1.19844e-07
-1.24366e-07
-1.23888e-07
-1.20998e-07
-1.13997e-07
-1.23422e-07
-1.23422e-07
-1.23422e-07
-1.23422e-07
-1.25027e-07
-1.26029e-07
-1.19575e-07
-1.23422e-07
-1.23422e-07
-1.23422e-07
-1.23422e-07
-1.23422e-07
-1.23422e-07
-1.34079e-07
-1.29838e-07
-1.23133e-07
-1.18577e-07
-1.23422e-07
-1.23422e-07
-1.23422e-07
-1.23422e-07
-1.23422e-07
-1.23422e-07
-1.37478e-07
-1.29444e-07
-1.23663e-07
-1.17913e-07
-1.23422e-07
-1.23422e-07
-1.23422e-07
-1.23422e-07
-1.23422e-07
-1.23422e-07
-1.37565e-07
-1.27118e-07
-1.19844e-07
-1.23422e-07
-1.23422e-07
-1.23422e-07
-1.23422e-07
-1.23422e-07
-1.23422e-07
-1.36638e-07
-1.33854e-07
-1.24366e-07
-1.25033e-07
-1.23422e-07
-1.23422e-07
-1.23422e-07
-1.23422e-07
-1.43059e-07
-1.31409e-07
-1.28062e-07
-1.23889e-07
-1.26032e-07
-1.34081e-07
-1.37486e-07
-1.37572e-07
-1.36654e-07
-1.3142e-07
-1.3409e-07
-1.2985e-07
-1.29447e-07
-1.27121e-07
-1.33861e-07
-1.28062e-07
-1.20765e-07
-1.21296e-07
-1.18637e-07
-1.17201e-07
-1.16209e-07
-1.15548e-07
-1.17478e-07
-1.22e-07
-1.21521e-07
-1.18632e-07
-1.11631e-07
-1.21056e-07
-1.21056e-07
-1.21056e-07
-1.21056e-07
-1.22661e-07
-1.23663e-07
-1.17209e-07
-1.21056e-07
-1.21056e-07
-1.21056e-07
-1.21056e-07
-1.21056e-07
-1.21056e-07
-1.31713e-07
-1.27472e-07
-1.20767e-07
-1.16211e-07
-1.21056e-07
-1.21056e-07
-1.21056e-07
-1.21056e-07
-1.21056e-07
-1.21056e-07
-1.35112e-07
-1.27078e-07
-1.21296e-07
-1.15547e-07
-1.21056e-07
-1.21056e-07
-1.21056e-07
-1.21056e-07
-1.21056e-07
-1.21056e-07
-1.35199e-07
-1.24752e-07
-1.17478e-07
-1.21056e-07
-1.21056e-07
-1.21056e-07
-1.21056e-07
-1.21056e-07
-1.21056e-07
-1.34272e-07
-1.31488e-07
-1.21999e-07
-1.22667e-07
-1.21056e-07
-1.21057e-07
-1.21058e-07
-1.21056e-07
-1.40693e-07
-1.29043e-07
-1.25696e-07
-1.21523e-07
-1.23666e-07
-1.31715e-07
-1.3512e-07
-1.35206e-07
-1.34288e-07
-1.29054e-07
-1.31724e-07
-1.27484e-07
-1.2708e-07
-1.24755e-07
-1.31495e-07
-1.25696e-07
-1.184e-07
-1.1893e-07
-1.16271e-07
-1.14836e-07
-1.13844e-07
-1.13183e-07
-1.15113e-07
-1.19635e-07
-1.19157e-07
-1.16266e-07
-1.09265e-07
-1.1869e-07
-1.1869e-07
-1.1869e-07
-1.18691e-07
-1.20296e-07
-1.21298e-07
-1.14844e-07
-1.18691e-07
-1.1869e-07
-1.1869e-07
-1.1869e-07
-1.1869e-07
-1.1869e-07
-1.29347e-07
-1.25107e-07
-1.18402e-07
-1.13846e-07
-1.1869e-07
-1.1869e-07
-1.1869e-07
-1.1869e-07
-1.1869e-07
-1.1869e-07
-1.32747e-07
-1.24713e-07
-1.18931e-07
-1.13183e-07
-1.1869e-07
-1.1869e-07
-1.1869e-07
-1.1869e-07
-1.1869e-07
-1.1869e-07
-1.32833e-07
-1.22387e-07
-1.15112e-07
-1.1869e-07
-1.1869e-07
-1.1869e-07
-1.1869e-07
-1.1869e-07
-1.1869e-07
-1.31907e-07
-1.29123e-07
-1.19634e-07
-1.20301e-07
-1.1869e-07
-1.1869e-07
-1.1869e-07
-1.1869e-07
-1.38327e-07
-1.26677e-07
-1.2333e-07
-1.19157e-07
-1.213e-07
-1.29351e-07
-1.32755e-07
-1.32842e-07
-1.31923e-07
-1.26689e-07
-1.29358e-07
-1.25118e-07
-1.24715e-07
-1.2239e-07
-1.29129e-07
-1.23331e-07
-1.16033e-07
-1.16564e-07
-1.13905e-07
-1.1247e-07
-1.11477e-07
-1.10816e-07
-1.12747e-07
-1.17267e-07
-1.16791e-07
-1.13901e-07
-1.06898e-07
-1.16324e-07
-1.16324e-07
-1.16324e-07
-1.16324e-07
-1.17934e-07
-1.18933e-07
-1.12477e-07
-1.16324e-07
-1.16323e-07
-1.16324e-07
-1.16324e-07
-1.16324e-07
-1.16324e-07
-1.26981e-07
-1.22741e-07
-1.16035e-07
-1.11479e-07
-1.16324e-07
-1.16324e-07
-1.16324e-07
-1.16324e-07
-1.16324e-07
-1.16324e-07
-1.30381e-07
-1.22347e-07
-1.16564e-07
-1.10816e-07
-1.16324e-07
-1.16323e-07
-1.16324e-07
-1.16324e-07
-1.16324e-07
-1.16324e-07
-1.30467e-07
-1.20021e-07
-1.12746e-07
-1.16323e-07
-1.16323e-07
-1.16323e-07
-1.16324e-07
-1.16324e-07
-1.16324e-07
-1.2954e-07
-1.26757e-07
-1.17267e-07
-1.17934e-07
-1.16323e-07
-1.16323e-07
-1.16323e-07
-1.16324e-07
-1.35961e-07
-1.24311e-07
-1.20964e-07
-1.16791e-07
-1.18933e-07
-1.26984e-07
-1.30389e-07
-1.30476e-07
-1.29557e-07
-1.24322e-07
-1.26992e-07
-1.22751e-07
-1.22348e-07
-1.20023e-07
-1.26762e-07
-1.20964e-07
-1.13666e-07
-1.14197e-07
-1.11539e-07
-1.10102e-07
-1.0911e-07
-1.08449e-07
-1.1038e-07
-1.14902e-07
-1.14423e-07
-1.11534e-07
-1.04533e-07
-1.13957e-07
-1.13957e-07
-1.13957e-07
-1.13957e-07
-1.15567e-07
-1.16566e-07
-1.10111e-07
-1.13957e-07
-1.13957e-07
-1.13957e-07
-1.13957e-07
-1.13957e-07
-1.13957e-07
-1.24614e-07
-1.20374e-07