/*--------------------------------*- C++ -*----------------------------------*\
| =========                 |                                                 |
| \\      /  F ield         | OpenFOAM: The Open Source CFD Toolbox           |
|  \\    /   O peration     | Version:  v2012                                 |
|   \\  /    A nd           | Website:  www.openfoam.com                      |
|    \\/     M anipulation  |                                                 |
\*---------------------------------------------------------------------------*/
FoamFile
{
    version     2.0;
    format      ascii;
    class       volScalarField;
    location    "0.275";
    object      p;
}
// * * * * * * * * * * * * * * * * * * * * * * * * * * * * * * * * * * * * * //

dimensions      [0 2 -2 0 0 0 0];


internalField   nonuniform List<scalar> 
189320
(
3.61285e-07
3.62214e-07
3.53839e-07
3.53358e-07
3.50619e-07
3.49834e-07
3.52225e-07
3.53436e-07
3.50911e-07
3.53833e-07
3.49483e-07
3.49997e-07
3.48918e-07
3.4867e-07
3.49486e-07
3.49816e-07
3.52214e-07
3.53363e-07
3.49986e-07
3.48329e-07
3.47617e-07
3.47478e-07
3.47968e-07
3.49099e-07
3.49534e-07
3.54207e-07
3.61165e-07
3.5059e-07
3.48912e-07
3.47616e-07
3.47083e-07
3.46993e-07
3.47302e-07
3.48187e-07
3.50027e-07
3.53841e-07
3.62097e-07
3.49799e-07
3.48664e-07
3.4748e-07
3.46997e-07
3.46911e-07
3.47182e-07
3.47958e-07
3.49851e-07
3.51987e-07
3.5223e-07
3.49491e-07
3.47977e-07
3.47313e-07
3.47188e-07
3.47597e-07
3.4862e-07
3.49954e-07
3.63396e-07
3.53445e-07
3.4983e-07
3.49118e-07
3.48211e-07
3.47978e-07
3.48628e-07
3.49899e-07
3.49424e-07
3.53854e-07
3.50923e-07
3.52235e-07
3.49572e-07
3.50075e-07
3.49896e-07
3.49973e-07
3.49432e-07
3.48506e-07
3.54226e-07
3.53895e-07
3.52122e-07
3.63434e-07
3.53878e-07
3.4216e-07
3.41947e-07
3.43868e-07
3.42863e-07
3.42962e-07
3.42781e-07
3.42794e-07
3.41481e-07
3.42179e-07
3.43984e-07
3.44922e-07
3.37251e-07
3.36847e-07
3.36851e-07
3.37239e-07
3.38916e-07
3.39045e-07
3.42999e-07
3.37251e-07
3.35367e-07
3.35867e-07
3.3586e-07
3.35374e-07
3.37285e-07
3.34473e-07
3.3797e-07
3.42213e-07
3.43033e-07
3.36869e-07
3.35864e-07
3.36082e-07
3.3608e-07
3.35878e-07
3.36872e-07
3.34002e-07
3.37499e-07
3.41984e-07
3.42829e-07
3.36874e-07
3.3587e-07
3.36086e-07
3.36087e-07
3.35887e-07
3.36879e-07
3.33826e-07
3.38604e-07
3.42824e-07
3.37259e-07
3.35387e-07
3.35887e-07
3.35879e-07
3.35396e-07
3.37288e-07
3.33938e-07
3.3465e-07
3.41499e-07
3.38998e-07
3.37299e-07
3.36895e-07
3.36896e-07
3.37284e-07
3.27711e-07
3.35715e-07
3.3969e-07
3.42193e-07
3.39063e-07
3.34502e-07
3.3403e-07
3.33879e-07
3.34071e-07
3.36198e-07
3.35115e-07
3.37995e-07
3.37538e-07
3.38652e-07
3.34731e-07
3.3983e-07
3.3812e-07
3.37639e-07
3.39745e-07
3.39248e-07
3.39685e-07
3.39884e-07
3.38919e-07
3.37294e-07
3.37788e-07
3.39744e-07
3.4251e-07
3.34572e-07
3.34435e-07
3.3443e-07
3.34564e-07
3.35862e-07
3.35049e-07
3.39313e-07
3.34588e-07
3.33429e-07
3.33428e-07
3.33421e-07
3.33444e-07
3.34624e-07
3.2973e-07
3.33537e-07
3.38166e-07
3.39737e-07
3.34454e-07
3.33427e-07
3.33444e-07
3.33443e-07
3.33446e-07
3.34481e-07
3.27602e-07
3.33787e-07
3.37688e-07
3.39943e-07
3.34457e-07
3.33429e-07
3.33445e-07
3.33449e-07
3.33451e-07
3.34484e-07
3.27578e-07
3.34265e-07
3.39015e-07
3.34586e-07
3.33444e-07
3.33444e-07
3.33438e-07
3.33458e-07
3.34625e-07
3.27999e-07
3.30495e-07
3.37283e-07
3.3574e-07
3.34613e-07
3.34473e-07
3.34468e-07
3.34602e-07
3.23492e-07
3.30942e-07
3.34694e-07
3.37718e-07
3.34981e-07
3.29711e-07
3.27589e-07
3.27549e-07
3.27901e-07
3.31097e-07
3.30334e-07
3.33507e-07
3.33767e-07
3.34238e-07
3.3046e-07
3.3469e-07
3.34479e-07
3.33993e-07
3.36086e-07
3.35792e-07
3.36315e-07
3.36625e-07
3.35464e-07
3.33699e-07
3.34081e-07
3.3609e-07
3.39242e-07
3.31298e-07
3.31258e-07
3.31258e-07
3.31298e-07
3.32142e-07
3.31404e-07
3.35794e-07
3.313e-07
3.30864e-07
3.30835e-07
3.30832e-07
3.30867e-07
3.31307e-07
3.25697e-07
3.29797e-07
3.34491e-07
3.3634e-07
3.31265e-07
3.30834e-07
3.3082e-07
3.30818e-07
3.30837e-07
3.31266e-07
3.23423e-07
3.29994e-07
3.34006e-07
3.36634e-07
3.31264e-07
3.30832e-07
3.30818e-07
3.30819e-07
3.30839e-07
3.31269e-07
3.23396e-07
3.30494e-07
3.35467e-07
3.31302e-07
3.30866e-07
3.30837e-07
3.30835e-07
3.30871e-07
3.31307e-07
3.23816e-07
3.267e-07
3.33698e-07
3.32142e-07
3.31306e-07
3.31269e-07
3.31269e-07
3.31307e-07
3.19519e-07
3.27565e-07
3.30958e-07
3.34077e-07
3.31398e-07
3.25695e-07
3.23411e-07
3.23388e-07
3.23801e-07
3.27561e-07
3.26672e-07
3.29797e-07
3.29981e-07
3.30498e-07
3.26693e-07
3.30955e-07
3.31083e-07
3.30596e-07
3.32678e-07
3.32439e-07
3.33065e-07
3.33353e-07
3.3207e-07
3.30293e-07
3.3065e-07
3.32669e-07
3.3596e-07
3.27988e-07
3.27979e-07
3.27979e-07
3.2799e-07
3.28713e-07
3.27965e-07
3.32436e-07
3.27989e-07
3.27831e-07
3.27822e-07
3.2782e-07
3.27832e-07
3.27989e-07
3.22245e-07
3.26368e-07
3.31084e-07
3.33067e-07
3.27979e-07
3.27821e-07
3.27816e-07
3.27814e-07
3.27822e-07
3.2798e-07
3.19904e-07
3.26562e-07
3.30599e-07
3.33352e-07
3.27979e-07
3.27821e-07
3.27814e-07
3.27813e-07
3.27823e-07
3.2798e-07
3.19901e-07
3.27084e-07
3.32067e-07
3.27989e-07
3.27832e-07
3.27822e-07
3.2782e-07
3.27832e-07
3.27991e-07
3.20404e-07
3.23254e-07
3.30294e-07
3.28716e-07
3.2799e-07
3.27981e-07
3.27981e-07
3.27991e-07
3.16013e-07
3.24152e-07
3.27507e-07
3.30651e-07
3.27963e-07
3.22246e-07
3.199e-07
3.19898e-07
3.20402e-07
3.2415e-07
3.23231e-07
3.26369e-07
3.26557e-07
3.27078e-07
3.23257e-07
3.27509e-07
3.27759e-07
3.27271e-07
3.29344e-07
3.29128e-07
3.29779e-07
3.30069e-07
3.28748e-07
3.26964e-07
3.27315e-07
3.29341e-07
3.32677e-07
3.2469e-07
3.24687e-07
3.24687e-07
3.24689e-07
3.25379e-07
3.24626e-07
3.29126e-07
3.24688e-07
3.24632e-07
3.24627e-07
3.24627e-07
3.24632e-07
3.24688e-07
3.18914e-07
3.23047e-07
3.27757e-07
3.29778e-07
3.24686e-07
3.24627e-07
3.24625e-07
3.24625e-07
3.24627e-07
3.24686e-07
3.16553e-07
3.23225e-07
3.27272e-07
3.3007e-07
3.24687e-07
3.24627e-07
3.24625e-07
3.24626e-07
3.24628e-07
3.24686e-07
3.16552e-07
3.23754e-07
3.28748e-07
3.24689e-07
3.24633e-07
3.24627e-07
3.24627e-07
3.24633e-07
3.24688e-07
3.17082e-07
3.19918e-07
3.26961e-07
3.25377e-07
3.24689e-07
3.24687e-07
3.24686e-07
3.24688e-07
3.12648e-07
3.20818e-07
3.24168e-07
3.27313e-07
3.24627e-07
3.18914e-07
3.16549e-07
3.16549e-07
3.17078e-07
3.20814e-07
3.1988e-07
3.23037e-07
3.23224e-07
3.23747e-07
3.19918e-07
3.2417e-07
3.24458e-07
3.23972e-07
3.2604e-07
3.25836e-07
3.26498e-07
3.26785e-07
3.2544e-07
3.2366e-07
3.2401e-07
3.26038e-07
3.29389e-07
3.21391e-07
3.21397e-07
3.21396e-07
3.21392e-07
3.22073e-07
3.21319e-07
3.25835e-07
3.21395e-07
3.21374e-07
3.21374e-07
3.21374e-07
3.21374e-07
3.21396e-07
3.15607e-07
3.19736e-07
3.24458e-07
3.26501e-07
3.21397e-07
3.21372e-07
3.21372e-07
3.21372e-07
3.21372e-07
3.21395e-07
3.13241e-07
3.19921e-07
3.23971e-07
3.26782e-07
3.21395e-07
3.21372e-07
3.21372e-07
3.21373e-07
3.21372e-07
3.21395e-07
3.13251e-07
3.20449e-07
3.25439e-07
3.21394e-07
3.21374e-07
3.21373e-07
3.21374e-07
3.21375e-07
3.21394e-07
3.13788e-07
3.16612e-07
3.23658e-07
3.22072e-07
3.21393e-07
3.21394e-07
3.21394e-07
3.21393e-07
3.09335e-07
3.17521e-07
3.2086e-07
3.24006e-07
3.21316e-07
3.15609e-07
3.1324e-07
3.13251e-07
3.13783e-07
3.17513e-07
3.16569e-07
3.19726e-07
3.19922e-07
3.20448e-07
3.16608e-07
3.20863e-07
3.21168e-07
3.2068e-07
3.22747e-07
3.22545e-07
3.23213e-07
3.23493e-07
3.22143e-07
3.20365e-07
3.20714e-07
3.22744e-07
3.26101e-07
3.18102e-07
3.181e-07
3.181e-07
3.18103e-07
3.18778e-07
3.18025e-07
3.22543e-07
3.18101e-07
3.18096e-07
3.18095e-07
3.18094e-07
3.18097e-07
3.18102e-07
3.12317e-07
3.16444e-07
3.21164e-07
3.23212e-07
3.18101e-07
3.18095e-07
3.18094e-07
3.18094e-07
3.18096e-07
3.18101e-07
3.09948e-07
3.16631e-07
3.20679e-07
3.23493e-07
3.18101e-07
3.18095e-07
3.18094e-07
3.18094e-07
3.18095e-07
3.18102e-07
3.0996e-07
3.17157e-07
3.22144e-07
3.18102e-07
3.18096e-07
3.18095e-07
3.18095e-07
3.18096e-07
3.18102e-07
3.10501e-07
3.13317e-07
3.20363e-07
3.18776e-07
3.18101e-07
3.181e-07
3.18101e-07
3.18103e-07
3.06037e-07
3.14224e-07
3.17564e-07
3.20711e-07
3.1802e-07
3.12314e-07
3.09943e-07
3.09955e-07
3.10491e-07
3.14217e-07
3.13274e-07
3.16433e-07
3.16626e-07
3.17156e-07
3.13313e-07
3.17566e-07
3.17874e-07
3.17387e-07
3.19454e-07
3.19252e-07
3.19922e-07
3.20204e-07
3.18852e-07
3.17073e-07
3.17421e-07
3.19452e-07
3.22812e-07
3.14811e-07
3.14811e-07
3.14811e-07
3.14812e-07
3.15484e-07
3.14731e-07
3.19252e-07
3.14813e-07
3.14808e-07
3.14807e-07
3.14807e-07
3.14808e-07
3.14809e-07
3.09023e-07
3.1315e-07
3.17873e-07
3.19921e-07
3.14811e-07
3.14806e-07
3.14807e-07
3.14807e-07
3.14808e-07
3.14809e-07
3.06652e-07
3.13337e-07
3.17387e-07
3.20204e-07
3.14812e-07
3.14809e-07
3.14809e-07
3.14807e-07
3.14808e-07
3.1481e-07
3.06667e-07
3.13863e-07
3.18852e-07
3.14809e-07
3.14805e-07
3.14804e-07
3.14806e-07
3.14807e-07
3.14811e-07
3.07209e-07
3.10025e-07
3.17072e-07
3.15482e-07
3.14813e-07
3.14813e-07
3.14812e-07
3.14813e-07
3.02745e-07
3.10932e-07
3.14272e-07
3.17418e-07
3.14727e-07
3.09022e-07
3.0665e-07
3.06662e-07
3.07198e-07
3.10925e-07
3.0998e-07
3.13141e-07
3.13334e-07
3.13863e-07
3.10022e-07
3.14275e-07
3.14583e-07
3.14095e-07
3.16162e-07
3.15963e-07
3.16633e-07
3.16914e-07
3.15559e-07
3.1378e-07
3.14129e-07
3.1616e-07
3.19522e-07
3.1152e-07
3.1152e-07
3.1152e-07
3.11519e-07
3.12192e-07
3.11439e-07
3.15962e-07
3.1152e-07
3.11517e-07
3.11517e-07
3.11518e-07
3.11518e-07
3.11519e-07
3.05731e-07
3.09859e-07
3.14581e-07
3.16631e-07
3.1152e-07
3.1152e-07
3.11518e-07
3.1152e-07
3.11518e-07
3.1152e-07
3.0336e-07
3.10045e-07
3.14096e-07
3.16914e-07
3.11519e-07
3.11517e-07
3.11517e-07
3.11519e-07
3.11516e-07
3.11519e-07
3.03375e-07
3.10572e-07
3.15559e-07
3.11521e-07
3.11518e-07
3.11519e-07
3.11519e-07
3.11518e-07
3.11521e-07
3.03917e-07
3.06733e-07
3.1378e-07
3.12188e-07
3.11519e-07
3.11519e-07
3.11519e-07
3.11519e-07
2.99454e-07
3.07639e-07
3.10979e-07
3.14126e-07
3.11435e-07
3.05729e-07
3.03354e-07
3.0337e-07
3.03907e-07
3.07632e-07
3.06687e-07
3.09849e-07
3.10043e-07
3.10571e-07
3.06729e-07
3.10982e-07
3.11292e-07
3.10805e-07
3.12874e-07
3.12675e-07
3.13343e-07
3.13623e-07
3.12267e-07
3.10491e-07
3.10838e-07
3.1287e-07
3.16229e-07
3.08228e-07
3.08228e-07
3.08228e-07
3.08227e-07
3.089e-07
3.08148e-07
3.1267e-07
3.08228e-07
3.08229e-07
3.08228e-07
3.08228e-07
3.08229e-07
3.08228e-07
3.02441e-07
3.06569e-07
3.1129e-07
3.13341e-07
3.08228e-07
3.08228e-07
3.08228e-07
3.08228e-07
3.08228e-07
3.08228e-07
3.0007e-07
3.06755e-07
3.10805e-07
3.13623e-07
3.08228e-07
3.08228e-07
3.08228e-07
3.08228e-07
3.08228e-07
3.08228e-07
3.00086e-07
3.07282e-07
3.12267e-07
3.08228e-07
3.08228e-07
3.08228e-07
3.08228e-07
3.08229e-07
3.08228e-07
3.00628e-07
3.03442e-07
3.10489e-07
3.08897e-07
3.08228e-07
3.08228e-07
3.08228e-07
3.08228e-07
2.96164e-07
3.04349e-07
3.07688e-07
3.10835e-07
3.08144e-07
3.02439e-07
3.00063e-07
3.00079e-07
3.00617e-07
3.04342e-07
3.03397e-07
3.06559e-07
3.06753e-07
3.07281e-07
3.03438e-07
3.07691e-07
3.08001e-07
3.07513e-07
3.09577e-07
3.09384e-07
3.10051e-07
3.10331e-07
3.08976e-07
3.07198e-07
3.07544e-07
3.09578e-07
3.12938e-07
3.04937e-07
3.04937e-07
3.04937e-07
3.04937e-07
3.05608e-07
3.04855e-07
3.09379e-07
3.04937e-07
3.04937e-07
3.04937e-07
3.04937e-07
3.04937e-07
3.04937e-07
2.99149e-07
3.03277e-07
3.07999e-07
3.1005e-07
3.04937e-07
3.04937e-07
3.04937e-07
3.04937e-07
3.04937e-07
3.04937e-07
2.9678e-07
3.03464e-07
3.07514e-07
3.10332e-07
3.04937e-07
3.04937e-07
3.04937e-07
3.04937e-07
3.04937e-07
3.04937e-07
2.96796e-07
3.03991e-07
3.08976e-07
3.04937e-07
3.04937e-07
3.04937e-07
3.04937e-07
3.04937e-07
3.04937e-07
2.97336e-07
3.00151e-07
3.07198e-07
3.05605e-07
3.04937e-07
3.04936e-07
3.04936e-07
3.04937e-07
2.92872e-07
3.01058e-07
3.04396e-07
3.07544e-07
3.04852e-07
2.99147e-07
2.96773e-07
2.96789e-07
2.97325e-07
3.01051e-07
3.00105e-07
3.03267e-07
3.03462e-07
3.0399e-07
3.00147e-07
3.044e-07
3.0471e-07
3.04222e-07
3.06289e-07
3.06093e-07
3.06761e-07
3.0704e-07
3.05686e-07
3.03906e-07
3.04252e-07
3.06287e-07
3.09648e-07
3.01646e-07
3.01646e-07
3.01646e-07
3.01646e-07
3.02316e-07
3.01563e-07
3.06088e-07
3.01646e-07
3.01645e-07
3.01645e-07
3.01645e-07
3.01645e-07
3.01646e-07
2.95858e-07
2.99985e-07
3.04708e-07
3.06759e-07
3.01646e-07
3.01645e-07
3.01646e-07
3.01646e-07
3.01645e-07
3.01646e-07
2.93489e-07
3.00173e-07
3.04222e-07
3.07041e-07
3.01646e-07
3.01645e-07
3.01645e-07
3.01645e-07
3.01645e-07
3.01646e-07
2.93504e-07
3.007e-07
3.05685e-07
3.01646e-07
3.01645e-07
3.01646e-07
3.01646e-07
3.01645e-07
3.01646e-07
2.94045e-07
2.96859e-07
3.03906e-07
3.02314e-07
3.01646e-07
3.01646e-07
3.01646e-07
3.01646e-07
2.89581e-07
2.97766e-07
3.01105e-07
3.04253e-07
3.01561e-07
2.95856e-07
2.93481e-07
2.93495e-07
2.94034e-07
2.97759e-07
2.96814e-07
2.99976e-07
3.0017e-07
3.00698e-07
2.96855e-07
3.01108e-07
3.01418e-07
3.00931e-07
3.02996e-07
3.02801e-07
3.03469e-07
3.03749e-07
3.02394e-07
3.00615e-07
3.00961e-07
3.02995e-07
3.06356e-07
2.98354e-07
2.98355e-07
2.98355e-07
2.98355e-07
2.99025e-07
2.98272e-07
3.02797e-07
2.98354e-07
2.98354e-07
2.98355e-07
2.98354e-07
2.98354e-07
2.98354e-07
2.92567e-07
2.96694e-07
3.01416e-07
3.03467e-07
2.98354e-07
2.98354e-07
2.98354e-07
2.98354e-07
2.98354e-07
2.98354e-07
2.90198e-07
2.96881e-07
3.00931e-07
3.0375e-07
2.98354e-07
2.98354e-07
2.98354e-07
2.98354e-07
2.98354e-07
2.98354e-07
2.90213e-07
2.97409e-07
3.02393e-07
2.98354e-07
2.98354e-07
2.98354e-07
2.98354e-07
2.98354e-07
2.98354e-07
2.90754e-07
2.93568e-07
3.00615e-07
2.99023e-07
2.98354e-07
2.98354e-07
2.98354e-07
2.98354e-07
2.86289e-07
2.94475e-07
2.97814e-07
3.00961e-07
2.98269e-07
2.92564e-07
2.90189e-07
2.90204e-07
2.90743e-07
2.94468e-07
2.93523e-07
2.96684e-07
2.96879e-07
2.97407e-07
2.93564e-07
2.97817e-07
2.98127e-07
2.9764e-07
2.99705e-07
2.9951e-07
3.00178e-07
3.00458e-07
2.99103e-07
2.97325e-07
2.97672e-07
2.99704e-07
3.03065e-07
2.95064e-07
2.95064e-07
2.95064e-07
2.95064e-07
2.95734e-07
2.94982e-07
2.99506e-07
2.95064e-07
2.95064e-07
2.95064e-07
2.95064e-07
2.95064e-07
2.95064e-07
2.89276e-07
2.93403e-07
2.98125e-07
3.00176e-07
2.95063e-07
2.95064e-07
2.95064e-07
2.95064e-07
2.95064e-07
2.95064e-07
2.86907e-07
2.93591e-07
2.9764e-07
3.00459e-07
2.95063e-07
2.95064e-07
2.95064e-07
2.95064e-07
2.95064e-07
2.95064e-07
2.86922e-07
2.94118e-07
2.99102e-07
2.95063e-07
2.95064e-07
2.95064e-07
2.95064e-07
2.95064e-07
2.95064e-07
2.87463e-07
2.90277e-07
2.97324e-07
2.95732e-07
2.95063e-07
2.95063e-07
2.95063e-07
2.95063e-07
2.82999e-07
2.91184e-07
2.94523e-07
2.9767e-07
2.94978e-07
2.89274e-07
2.86899e-07
2.86914e-07
2.87452e-07
2.91178e-07
2.90232e-07
2.93393e-07
2.93588e-07
2.94116e-07
2.90274e-07
2.94527e-07
2.94836e-07
2.94349e-07
2.96414e-07
2.96219e-07
2.96887e-07
2.97167e-07
2.95812e-07
2.94033e-07
2.94379e-07
2.96413e-07
2.99773e-07
2.91773e-07
2.91773e-07
2.91773e-07
2.91773e-07
2.92443e-07
2.91691e-07
2.96215e-07
2.91773e-07
2.91773e-07
2.91773e-07
2.91773e-07
2.91773e-07
2.91773e-07
2.85985e-07
2.90112e-07
2.94835e-07
2.96886e-07
2.91773e-07
2.91773e-07
2.91773e-07
2.91773e-07
2.91773e-07
2.91773e-07
2.83616e-07
2.903e-07
2.94349e-07
2.97168e-07
2.91773e-07
2.91773e-07
2.91773e-07
2.91773e-07
2.91773e-07
2.91773e-07
2.83631e-07
2.90827e-07
2.95812e-07
2.91773e-07
2.91773e-07
2.91773e-07
2.91773e-07
2.91773e-07
2.91773e-07
2.84172e-07
2.86986e-07
2.94033e-07
2.92441e-07
2.91773e-07
2.91773e-07
2.91773e-07
2.91772e-07
2.79708e-07
2.87894e-07
2.91232e-07
2.9438e-07
2.91688e-07
2.85982e-07
2.83607e-07
2.83622e-07
2.84161e-07
2.87886e-07
2.86941e-07
2.90102e-07
2.90297e-07
2.90825e-07
2.86982e-07
2.91236e-07
2.91545e-07
2.91058e-07
2.93123e-07
2.92929e-07
2.93596e-07
2.93876e-07
2.92521e-07
2.90744e-07
2.91088e-07
2.93123e-07
2.96483e-07
2.88482e-07
2.88482e-07
2.88482e-07
2.88482e-07
2.89152e-07
2.884e-07
2.92924e-07
2.88482e-07
2.88482e-07
2.88482e-07
2.88482e-07
2.88482e-07
2.88482e-07
2.82694e-07
2.86821e-07
2.91544e-07
2.93595e-07
2.88482e-07
2.88482e-07
2.88482e-07
2.88482e-07
2.88482e-07
2.88482e-07
2.80325e-07
2.87009e-07
2.91058e-07
2.93877e-07
2.88482e-07
2.88482e-07
2.88482e-07
2.88482e-07
2.88482e-07
2.88482e-07
2.8034e-07
2.87536e-07
2.92521e-07
2.88482e-07
2.88482e-07
2.88482e-07
2.88482e-07
2.88482e-07
2.88482e-07
2.80881e-07
2.83696e-07
2.90743e-07
2.8915e-07
2.88482e-07
2.88482e-07
2.88482e-07
2.88482e-07
2.76417e-07
2.84603e-07
2.87941e-07
2.91089e-07
2.88397e-07
2.82692e-07
2.80317e-07
2.8033e-07
2.80868e-07
2.84595e-07
2.8365e-07
2.86812e-07
2.87007e-07
2.87538e-07
2.83691e-07
2.87944e-07
2.88254e-07
2.87767e-07
2.89831e-07
2.89637e-07
2.90305e-07
2.90585e-07
2.8923e-07
2.87452e-07
2.87797e-07
2.89831e-07
2.93191e-07
2.8519e-07
2.8519e-07
2.8519e-07
2.8519e-07
2.8586e-07
2.85109e-07
2.89633e-07
2.8519e-07
2.8519e-07
2.8519e-07
2.8519e-07
2.8519e-07
2.8519e-07
2.79402e-07
2.8353e-07
2.88253e-07
2.90303e-07
2.8519e-07
2.8519e-07
2.8519e-07
2.8519e-07
2.8519e-07
2.8519e-07
2.77034e-07
2.83718e-07
2.87767e-07
2.90586e-07
2.85191e-07
2.85191e-07
2.85191e-07
2.8519e-07
2.85191e-07
2.8519e-07
2.77049e-07
2.84245e-07
2.89229e-07
2.85191e-07
2.85191e-07
2.85191e-07
2.85191e-07
2.85191e-07
2.8519e-07
2.7759e-07
2.80404e-07
2.87451e-07
2.85859e-07
2.85191e-07
2.85191e-07
2.85191e-07
2.85191e-07
2.73126e-07
2.81311e-07
2.8465e-07
2.87798e-07
2.85106e-07
2.79401e-07
2.77027e-07
2.77041e-07
2.77577e-07
2.81304e-07
2.80359e-07
2.83521e-07
2.83716e-07
2.84247e-07
2.804e-07
2.84653e-07
2.84962e-07
2.84475e-07
2.86541e-07
2.86346e-07
2.87014e-07
2.87293e-07
2.85938e-07
2.8416e-07
2.84506e-07
2.8654e-07
2.899e-07
2.81899e-07
2.81899e-07
2.81899e-07
2.81899e-07
2.82569e-07
2.81817e-07
2.86342e-07
2.81899e-07
2.81899e-07
2.81899e-07
2.81899e-07
2.81899e-07
2.81899e-07
2.7611e-07
2.80239e-07
2.84961e-07
2.87012e-07
2.81899e-07
2.81899e-07
2.81899e-07
2.81899e-07
2.81899e-07
2.81899e-07
2.73743e-07
2.80426e-07
2.84476e-07
2.87295e-07
2.81899e-07
2.81899e-07
2.81899e-07
2.81899e-07
2.81899e-07
2.81899e-07
2.73758e-07
2.80954e-07
2.85938e-07
2.81899e-07
2.81899e-07
2.81899e-07
2.81899e-07
2.81899e-07
2.81899e-07
2.74298e-07
2.77113e-07
2.8416e-07
2.82568e-07
2.81899e-07
2.81899e-07
2.81899e-07
2.81899e-07
2.69834e-07
2.7802e-07
2.81359e-07
2.84506e-07
2.81815e-07
2.76109e-07
2.73734e-07
2.73748e-07
2.74285e-07
2.78013e-07
2.77067e-07
2.80229e-07
2.80424e-07
2.80953e-07
2.77108e-07
2.81362e-07
2.81671e-07
2.81184e-07
2.83249e-07
2.83055e-07
2.83723e-07
2.84002e-07
2.82647e-07
2.80869e-07
2.81215e-07
2.83249e-07
2.86609e-07
2.78608e-07
2.78608e-07
2.78608e-07
2.78608e-07
2.79278e-07
2.78526e-07
2.83051e-07
2.78608e-07
2.78608e-07
2.78608e-07
2.78608e-07
2.78608e-07
2.78608e-07
2.72819e-07
2.76947e-07
2.8167e-07
2.83721e-07
2.78608e-07
2.78608e-07
2.78608e-07
2.78608e-07
2.78608e-07
2.78608e-07
2.70451e-07
2.77135e-07
2.81185e-07
2.84004e-07
2.78608e-07
2.78608e-07
2.78608e-07
2.78608e-07
2.78608e-07
2.78608e-07
2.70467e-07
2.77662e-07
2.82647e-07
2.78608e-07
2.78608e-07
2.78608e-07
2.78608e-07
2.78608e-07
2.78608e-07
2.71007e-07
2.73822e-07
2.80869e-07
2.79277e-07
2.78608e-07
2.78608e-07
2.78608e-07
2.78608e-07
2.66543e-07
2.74729e-07
2.78067e-07
2.81215e-07
2.78524e-07
2.72819e-07
2.70446e-07
2.70459e-07
2.70995e-07
2.74722e-07
2.73776e-07
2.76939e-07
2.77134e-07
2.77664e-07
2.73816e-07
2.78071e-07
2.7838e-07
2.77893e-07
2.79958e-07
2.79764e-07
2.80432e-07
2.80711e-07
2.79356e-07
2.77577e-07
2.77925e-07
2.79958e-07
2.83318e-07
2.75317e-07
2.75317e-07
2.75317e-07
2.75317e-07
2.75989e-07
2.75235e-07
2.7976e-07
2.75317e-07
2.75317e-07
2.75317e-07
2.75317e-07
2.75317e-07
2.75317e-07
2.69528e-07
2.73657e-07
2.78379e-07
2.8043e-07
2.75317e-07
2.75317e-07
2.75317e-07
2.75317e-07
2.75317e-07
2.75317e-07
2.6716e-07
2.73844e-07
2.77894e-07
2.80713e-07
2.75317e-07
2.75317e-07
2.75317e-07
2.75317e-07
2.75317e-07
2.75317e-07
2.67176e-07
2.74371e-07
2.79356e-07
2.75317e-07
2.75317e-07
2.75317e-07
2.75317e-07
2.75317e-07
2.75317e-07
2.67716e-07
2.70531e-07
2.77578e-07
2.75986e-07
2.75317e-07
2.75317e-07
2.75317e-07
2.75317e-07
2.63252e-07
2.71438e-07
2.74777e-07
2.77924e-07
2.75233e-07
2.69528e-07
2.67155e-07
2.6717e-07
2.67706e-07
2.71431e-07
2.70486e-07
2.73648e-07
2.73842e-07
2.74369e-07
2.70526e-07
2.74781e-07
2.7509e-07
2.74603e-07
2.76667e-07
2.76472e-07
2.77141e-07
2.77421e-07
2.76066e-07
2.74285e-07
2.74633e-07
2.76667e-07
2.80027e-07
2.72026e-07
2.72026e-07
2.72026e-07
2.72026e-07
2.72698e-07
2.71944e-07
2.76469e-07
2.72026e-07
2.72026e-07
2.72026e-07
2.72026e-07
2.72026e-07
2.72026e-07
2.66237e-07
2.70365e-07
2.75088e-07
2.77139e-07
2.72026e-07
2.72026e-07
2.72026e-07
2.72026e-07
2.72026e-07
2.72026e-07
2.63869e-07
2.70553e-07
2.74603e-07
2.77422e-07
2.72026e-07
2.72026e-07
2.72026e-07
2.72026e-07
2.72026e-07
2.72026e-07
2.63885e-07
2.7108e-07
2.76065e-07
2.72026e-07
2.72026e-07
2.72026e-07
2.72026e-07
2.72026e-07
2.72026e-07
2.64425e-07
2.6724e-07
2.74287e-07
2.72695e-07
2.72026e-07
2.72026e-07
2.72026e-07
2.72026e-07
2.59961e-07
2.68147e-07
2.71486e-07
2.74633e-07
2.71942e-07
2.66237e-07
2.63864e-07
2.63879e-07
2.64415e-07
2.6814e-07
2.67195e-07
2.70356e-07
2.70551e-07
2.71078e-07
2.67235e-07
2.71489e-07
2.71799e-07
2.71312e-07
2.73376e-07
2.73181e-07
2.7385e-07
2.7413e-07
2.72775e-07
2.70995e-07
2.71343e-07
2.73376e-07
2.76736e-07
2.68735e-07
2.68735e-07
2.68735e-07
2.68735e-07
2.69407e-07
2.68654e-07
2.73178e-07
2.68735e-07
2.68735e-07
2.68735e-07
2.68735e-07
2.68735e-07
2.68735e-07
2.62946e-07
2.67075e-07
2.71798e-07
2.73848e-07
2.68735e-07
2.68735e-07
2.68735e-07
2.68735e-07
2.68735e-07
2.68735e-07
2.60579e-07
2.67262e-07
2.71312e-07
2.74131e-07
2.68735e-07
2.68735e-07
2.68735e-07
2.68735e-07
2.68735e-07
2.68735e-07
2.60594e-07
2.67789e-07
2.72774e-07
2.68735e-07
2.68735e-07
2.68735e-07
2.68735e-07
2.68735e-07
2.68735e-07
2.61134e-07
2.63949e-07
2.70996e-07
2.69404e-07
2.68735e-07
2.68735e-07
2.68735e-07
2.68735e-07
2.5667e-07
2.64856e-07
2.68195e-07
2.71342e-07
2.68651e-07
2.62946e-07
2.60573e-07
2.60588e-07
2.61124e-07
2.64849e-07
2.63904e-07
2.67065e-07
2.6726e-07
2.67787e-07
2.63944e-07
2.68198e-07
2.68508e-07
2.68021e-07
2.70085e-07
2.6989e-07
2.70559e-07
2.70839e-07
2.69484e-07
2.67703e-07
2.68051e-07
2.70085e-07
2.73445e-07
2.65444e-07
2.65444e-07
2.65444e-07
2.65444e-07
2.66116e-07
2.65363e-07
2.69887e-07
2.65444e-07
2.65444e-07
2.65444e-07
2.65444e-07
2.65444e-07
2.65444e-07
2.59656e-07
2.63785e-07
2.68506e-07
2.70557e-07
2.65444e-07
2.65444e-07
2.65444e-07
2.65444e-07
2.65444e-07
2.65444e-07
2.57288e-07
2.63971e-07
2.68021e-07
2.7084e-07
2.65444e-07
2.65444e-07
2.65444e-07
2.65444e-07
2.65444e-07
2.65444e-07
2.57303e-07
2.64498e-07
2.69483e-07
2.65444e-07
2.65444e-07
2.65444e-07
2.65444e-07
2.65444e-07
2.65444e-07
2.57843e-07
2.60658e-07
2.67705e-07
2.66112e-07
2.65444e-07
2.65444e-07
2.65444e-07
2.65444e-07
2.53379e-07
2.61565e-07
2.64903e-07
2.68051e-07
2.6536e-07
2.59655e-07
2.57282e-07
2.57297e-07
2.57833e-07
2.61558e-07
2.60612e-07
2.63774e-07
2.63969e-07
2.64496e-07
2.60653e-07
2.64907e-07
2.65216e-07
2.64729e-07
2.66793e-07
2.66599e-07
2.67268e-07
2.67547e-07
2.66192e-07
2.64413e-07
2.6476e-07
2.66794e-07
2.70154e-07
2.62153e-07
2.62153e-07
2.62153e-07
2.62153e-07
2.62825e-07
2.62071e-07
2.66595e-07
2.62153e-07
2.62153e-07
2.62153e-07
2.62153e-07
2.62153e-07
2.62153e-07
2.56364e-07
2.60493e-07
2.65215e-07
2.67266e-07
2.62153e-07
2.62153e-07
2.62153e-07
2.62153e-07
2.62153e-07
2.62153e-07
2.53996e-07
2.6068e-07
2.64729e-07
2.67548e-07
2.62153e-07
2.62153e-07
2.62153e-07
2.62153e-07
2.62153e-07
2.62153e-07
2.54012e-07
2.61207e-07
2.66192e-07
2.62153e-07
2.62153e-07
2.62153e-07
2.62153e-07
2.62153e-07
2.62153e-07
2.54552e-07
2.57367e-07
2.64414e-07
2.62821e-07
2.62153e-07
2.62153e-07
2.62153e-07
2.62153e-07
2.50088e-07
2.58274e-07
2.61612e-07
2.6476e-07
2.62068e-07
2.56363e-07
2.5399e-07
2.54005e-07
2.54541e-07
2.58267e-07
2.57321e-07
2.60483e-07
2.60678e-07
2.61204e-07
2.57361e-07
2.61616e-07
2.61925e-07
2.61438e-07
2.63502e-07
2.63308e-07
2.63977e-07
2.64256e-07
2.62901e-07
2.61121e-07
2.61469e-07
2.63503e-07
2.66863e-07
2.58862e-07
2.58862e-07
2.58862e-07
2.58862e-07
2.59534e-07
2.5878e-07
2.63304e-07
2.58862e-07
2.58862e-07
2.58862e-07
2.58862e-07
2.58862e-07
2.58861e-07
2.53073e-07
2.57202e-07
2.61924e-07
2.63975e-07
2.58862e-07
2.58862e-07
2.58862e-07
2.58862e-07
2.58862e-07
2.58861e-07
2.50705e-07
2.57388e-07
2.61438e-07
2.64257e-07
2.58862e-07
2.58862e-07
2.58862e-07
2.58862e-07
2.58862e-07
2.58861e-07
2.5072e-07
2.57916e-07
2.629e-07
2.58861e-07
2.58862e-07
2.58861e-07
2.58862e-07
2.58862e-07
2.58861e-07
2.51261e-07
2.54075e-07
2.61122e-07
2.5953e-07
2.58861e-07
2.58861e-07
2.58861e-07
2.58861e-07
2.46797e-07
2.54982e-07
2.58321e-07
2.61468e-07
2.58777e-07
2.53072e-07
2.50699e-07
2.50714e-07
2.5125e-07
2.54975e-07
2.5403e-07
2.57192e-07
2.57386e-07
2.57913e-07
2.5407e-07
2.58324e-07
2.58634e-07
2.58147e-07
2.60211e-07
2.60017e-07
2.60686e-07
2.60965e-07
2.5961e-07
2.5783e-07
2.58178e-07
2.60212e-07
2.63572e-07
2.55571e-07
2.55571e-07
2.55571e-07
2.5557e-07
2.56243e-07
2.55489e-07
2.60013e-07
2.55571e-07
2.55571e-07
2.55571e-07
2.55571e-07
2.55571e-07
2.55571e-07
2.49782e-07
2.53911e-07
2.58633e-07
2.60684e-07
2.55571e-07
2.5557e-07
2.5557e-07
2.5557e-07
2.5557e-07
2.5557e-07
2.47414e-07
2.54097e-07
2.58147e-07
2.60966e-07
2.55571e-07
2.55571e-07
2.5557e-07
2.55571e-07
2.5557e-07
2.55571e-07
2.47429e-07
2.54625e-07
2.59609e-07
2.55571e-07
2.55571e-07
2.55571e-07
2.55571e-07
2.55571e-07
2.5557e-07
2.4797e-07
2.50784e-07
2.57831e-07
2.56239e-07
2.5557e-07
2.5557e-07
2.55569e-07
2.5557e-07
2.43506e-07
2.51691e-07
2.5503e-07
2.58177e-07
2.55486e-07
2.49781e-07
2.47408e-07
2.47423e-07
2.47959e-07
2.51684e-07
2.50739e-07
2.539e-07
2.54095e-07
2.54622e-07
2.50779e-07
2.55033e-07
2.55343e-07
2.54856e-07
2.56921e-07
2.56725e-07
2.57395e-07
2.57674e-07
2.56319e-07
2.54539e-07
2.54887e-07
2.56921e-07
2.60281e-07
2.5228e-07
2.5228e-07
2.5228e-07
2.5228e-07
2.52951e-07
2.52198e-07
2.56722e-07
2.5228e-07
2.5228e-07
2.5228e-07
2.5228e-07
2.5228e-07
2.5228e-07
2.46491e-07
2.5062e-07
2.55342e-07
2.57393e-07
2.5228e-07
2.5228e-07
2.5228e-07
2.5228e-07
2.5228e-07
2.5228e-07
2.44123e-07
2.50806e-07
2.54856e-07
2.57674e-07
2.5228e-07
2.5228e-07
2.5228e-07
2.5228e-07
2.5228e-07
2.5228e-07
2.44138e-07
2.51334e-07
2.56319e-07
2.5228e-07
2.5228e-07
2.5228e-07
2.5228e-07
2.5228e-07
2.5228e-07
2.44679e-07
2.47493e-07
2.5454e-07
2.52948e-07
2.5228e-07
2.5228e-07
2.5228e-07
2.5228e-07
2.40215e-07
2.48401e-07
2.51739e-07
2.54887e-07
2.52195e-07
2.46488e-07
2.44116e-07
2.4413e-07
2.44668e-07
2.48393e-07
2.47448e-07
2.5061e-07
2.50804e-07
2.51331e-07
2.47488e-07
2.51743e-07
2.52052e-07
2.51565e-07
2.5363e-07
2.53435e-07
2.54104e-07
2.54383e-07
2.53028e-07
2.51249e-07
2.51596e-07
2.5363e-07
2.56991e-07
2.48989e-07
2.48989e-07
2.48989e-07
2.48989e-07
2.49658e-07
2.48907e-07
2.53431e-07
2.48989e-07
2.48989e-07
2.48989e-07
2.48989e-07
2.48989e-07
2.48989e-07
2.432e-07
2.47329e-07
2.52051e-07
2.54102e-07
2.48989e-07
2.48989e-07
2.48989e-07
2.48989e-07
2.48989e-07
2.48989e-07
2.40832e-07
2.47516e-07
2.51565e-07
2.54383e-07
2.48989e-07
2.48989e-07
2.48989e-07
2.48989e-07
2.48989e-07
2.48989e-07
2.40848e-07
2.48043e-07
2.53028e-07
2.48989e-07
2.48989e-07
2.48989e-07
2.48989e-07
2.48989e-07
2.48989e-07
2.41388e-07
2.44203e-07
2.5125e-07
2.49657e-07
2.48989e-07
2.48989e-07
2.48989e-07
2.48989e-07
2.36924e-07
2.4511e-07
2.48448e-07
2.51596e-07
2.48904e-07
2.43198e-07
2.40825e-07
2.4084e-07
2.41377e-07
2.45103e-07
2.44157e-07
2.47319e-07
2.47514e-07
2.4804e-07
2.44198e-07
2.48452e-07
2.48762e-07
2.48274e-07
2.50339e-07
2.50144e-07
2.50813e-07
2.51092e-07
2.49737e-07
2.47957e-07
2.48305e-07
2.50339e-07
2.53699e-07
2.45698e-07
2.45698e-07
2.45698e-07
2.45698e-07
2.46367e-07
2.45616e-07
2.50141e-07
2.45698e-07
2.45698e-07
2.45698e-07
2.45698e-07
2.45698e-07
2.45698e-07
2.39909e-07
2.44039e-07
2.4876e-07
2.50811e-07
2.45698e-07
2.45698e-07
2.45698e-07
2.45698e-07
2.45698e-07
2.45698e-07
2.37541e-07
2.44225e-07
2.48275e-07
2.51093e-07
2.45698e-07
2.45698e-07
2.45698e-07
2.45698e-07
2.45698e-07
2.45698e-07
2.37557e-07
2.44752e-07
2.49737e-07
2.45698e-07
2.45698e-07
2.45698e-07
2.45698e-07
2.45698e-07
2.45698e-07
2.38097e-07
2.40912e-07
2.47959e-07
2.46366e-07
2.45698e-07
2.45698e-07
2.45698e-07
2.45698e-07
2.33633e-07
2.41819e-07
2.45157e-07
2.48305e-07
2.45613e-07
2.39907e-07
2.37536e-07
2.3755e-07
2.38086e-07
2.41812e-07
2.40866e-07
2.44029e-07
2.44223e-07
2.44751e-07
2.40907e-07
2.45161e-07
2.45471e-07
2.44983e-07
2.47048e-07
2.46853e-07
2.47521e-07
2.478e-07
2.46446e-07
2.44666e-07
2.45014e-07
2.47048e-07
2.50408e-07
2.42407e-07
2.42407e-07
2.42407e-07
2.42407e-07
2.43076e-07
2.42325e-07
2.46849e-07
2.42407e-07
2.42407e-07
2.42407e-07
2.42407e-07
2.42407e-07
2.42407e-07
2.36618e-07
2.40747e-07
2.45469e-07
2.47519e-07
2.42407e-07
2.42407e-07
2.42407e-07
2.42407e-07
2.42407e-07
2.42407e-07
2.3425e-07
2.40934e-07
2.44983e-07
2.47801e-07
2.42407e-07
2.42407e-07
2.42407e-07
2.42407e-07
2.42407e-07
2.42407e-07
2.34265e-07
2.41461e-07
2.46446e-07
2.42407e-07
2.42407e-07
2.42407e-07
2.42407e-07
2.42407e-07
2.42407e-07
2.34806e-07
2.37621e-07
2.44668e-07
2.43075e-07
2.42407e-07
2.42407e-07
2.42407e-07
2.42407e-07
2.30342e-07
2.38528e-07
2.41866e-07
2.45014e-07
2.42322e-07
2.36616e-07
2.34245e-07
2.34258e-07
2.34795e-07
2.38521e-07
2.37575e-07
2.40737e-07
2.40932e-07
2.41459e-07
2.37615e-07
2.4187e-07
2.42179e-07
2.41692e-07
2.43755e-07
2.4356e-07
2.44229e-07
2.44509e-07
2.43154e-07
2.41374e-07
2.41723e-07
2.43756e-07
2.47116e-07
2.39115e-07
2.39115e-07
2.39115e-07
2.39115e-07
2.39785e-07
2.39033e-07
2.43557e-07
2.39115e-07
2.39115e-07
2.39115e-07
2.39115e-07
2.39115e-07
2.39115e-07
2.33326e-07
2.37456e-07
2.42177e-07
2.44228e-07
2.39115e-07
2.39115e-07
2.39115e-07
2.39115e-07
2.39115e-07
2.39115e-07
2.30959e-07
2.37642e-07
2.41692e-07
2.4451e-07
2.39115e-07
2.39115e-07
2.39115e-07
2.39115e-07
2.39115e-07
2.39115e-07
2.30974e-07
2.38169e-07
2.43154e-07
2.39115e-07
2.39115e-07
2.39115e-07
2.39115e-07
2.39115e-07
2.39115e-07
2.31515e-07
2.34329e-07
2.41376e-07
2.39783e-07
2.39115e-07
2.39115e-07
2.39115e-07
2.39115e-07