/*--------------------------------*- C++ -*----------------------------------*\
| =========                 |                                                 |
| \\      /  F ield         | OpenFOAM: The Open Source CFD Toolbox           |
|  \\    /   O peration     | Version:  v2012                                 |
|   \\  /    A nd           | Website:  www.openfoam.com                      |
|    \\/     M anipulation  |                                                 |
\*---------------------------------------------------------------------------*/
FoamFile
{
    version     2.0;
    format      ascii;
    class       volScalarField;
    location    "0.215";
    object      p;
}
// * * * * * * * * * * * * * * * * * * * * * * * * * * * * * * * * * * * * * //

dimensions      [0 2 -2 0 0 0 0];


internalField   nonuniform List<scalar> 
189320
(
-1.05761e-07
-1.03258e-07
-1.13939e-07
-1.14485e-07
-1.18908e-07
-1.20331e-07
-1.1674e-07
-1.15712e-07
-1.17238e-07
-1.13955e-07
-1.20191e-07
-1.19974e-07
-1.21569e-07
-1.21946e-07
-1.20747e-07
-1.19961e-07
-1.16033e-07
-1.14498e-07
-1.19983e-07
-1.22433e-07
-1.23502e-07
-1.23712e-07
-1.23005e-07
-1.2125e-07
-1.20004e-07
-1.14416e-07
-1.05932e-07
-1.18905e-07
-1.21573e-07
-1.23505e-07
-1.24243e-07
-1.24365e-07
-1.23955e-07
-1.22699e-07
-1.19806e-07
-1.14106e-07
-1.03385e-07
-1.20355e-07
-1.21952e-07
-1.23712e-07
-1.24361e-07
-1.24474e-07
-1.24129e-07
-1.23051e-07
-1.20232e-07
-1.16648e-07
-1.16756e-07
-1.20748e-07
-1.22999e-07
-1.23948e-07
-1.24125e-07
-1.2356e-07
-1.22059e-07
-1.19755e-07
-1.04224e-07
-1.15721e-07
-1.19952e-07
-1.21233e-07
-1.22679e-07
-1.23035e-07
-1.2205e-07
-1.19999e-07
-1.20098e-07
-1.14636e-07
-1.1723e-07
-1.16004e-07
-1.19954e-07
-1.19763e-07
-1.20194e-07
-1.19729e-07
-1.20079e-07
-1.21082e-07
-1.14357e-07
-1.13996e-07
-1.16547e-07
-1.04159e-07
-1.14585e-07
-1.25445e-07
-1.25663e-07
-1.23287e-07
-1.2295e-07
-1.22803e-07
-1.227e-07
-1.22964e-07
-1.2659e-07
-1.25683e-07
-1.2329e-07
-1.1891e-07
-1.28127e-07
-1.29262e-07
-1.29259e-07
-1.28145e-07
-1.27568e-07
-1.28715e-07
-1.22986e-07
-1.28163e-07
-1.31964e-07
-1.3163e-07
-1.3164e-07
-1.31961e-07
-1.28132e-07
-1.35595e-07
-1.31356e-07
-1.25475e-07
-1.22826e-07
-1.29266e-07
-1.31641e-07
-1.31406e-07
-1.3141e-07
-1.31637e-07
-1.29286e-07
-1.35895e-07
-1.31778e-07
-1.25687e-07
-1.22717e-07
-1.29247e-07
-1.31635e-07
-1.31408e-07
-1.31409e-07
-1.31629e-07
-1.29267e-07
-1.36131e-07
-1.29185e-07
-1.23003e-07
-1.28112e-07
-1.31949e-07
-1.31631e-07
-1.31642e-07
-1.3195e-07
-1.281e-07
-1.3638e-07
-1.35306e-07
-1.26596e-07
-1.27565e-07
-1.28127e-07
-1.29262e-07
-1.29263e-07
-1.2815e-07
-1.44179e-07
-1.33563e-07
-1.28972e-07
-1.25683e-07
-1.2871e-07
-1.35565e-07
-1.3586e-07
-1.361e-07
-1.3628e-07
-1.33649e-07
-1.35231e-07
-1.3133e-07
-1.31748e-07
-1.29167e-07
-1.35287e-07
-1.28975e-07
-1.24901e-07
-1.25424e-07
-1.2273e-07
-1.21816e-07
-1.21144e-07
-1.20633e-07
-1.21953e-07
-1.26089e-07
-1.25465e-07
-1.22736e-07
-1.16953e-07
-1.26036e-07
-1.26271e-07
-1.26275e-07
-1.26041e-07
-1.26678e-07
-1.27667e-07
-1.21818e-07
-1.26037e-07
-1.2805e-07
-1.28138e-07
-1.28149e-07
-1.28052e-07
-1.26038e-07
-1.35504e-07
-1.3133e-07
-1.24904e-07
-1.21142e-07
-1.26267e-07
-1.28145e-07
-1.28148e-07
-1.28156e-07
-1.28145e-07
-1.26281e-07
-1.38356e-07
-1.30958e-07
-1.25424e-07
-1.2063e-07
-1.26264e-07
-1.28148e-07
-1.28154e-07
-1.28155e-07
-1.28143e-07
-1.26277e-07
-1.385e-07
-1.28888e-07
-1.21955e-07
-1.26038e-07
-1.28051e-07
-1.28141e-07
-1.28151e-07
-1.28052e-07
-1.26035e-07
-1.37838e-07
-1.35199e-07
-1.26082e-07
-1.26676e-07
-1.26029e-07
-1.2627e-07
-1.26274e-07
-1.26038e-07
-1.43658e-07
-1.33149e-07
-1.2948e-07
-1.25458e-07
-1.27663e-07
-1.35484e-07
-1.38341e-07
-1.38493e-07
-1.37831e-07
-1.33164e-07
-1.35309e-07
-1.31323e-07
-1.30954e-07
-1.28885e-07
-1.35198e-07
-1.29487e-07
-1.23606e-07
-1.24132e-07
-1.21468e-07
-1.2033e-07
-1.19551e-07
-1.18925e-07
-1.20533e-07
-1.24749e-07
-1.24252e-07
-1.21463e-07
-1.15144e-07
-1.24346e-07
-1.24404e-07
-1.24406e-07
-1.24351e-07
-1.25463e-07
-1.26444e-07
-1.20335e-07
-1.24346e-07
-1.25082e-07
-1.25146e-07
-1.25153e-07
-1.25084e-07
-1.24347e-07
-1.34303e-07
-1.30078e-07
-1.23602e-07
-1.19548e-07
-1.24397e-07
-1.25149e-07
-1.25192e-07
-1.25197e-07
-1.25151e-07
-1.24408e-07
-1.37528e-07
-1.29724e-07
-1.24129e-07
-1.18923e-07
-1.244e-07
-1.25153e-07
-1.25198e-07
-1.25198e-07
-1.2515e-07
-1.24405e-07
-1.37654e-07
-1.27609e-07
-1.20537e-07
-1.24345e-07
-1.25084e-07
-1.25148e-07
-1.25155e-07
-1.25083e-07
-1.24351e-07
-1.36918e-07
-1.33985e-07
-1.24754e-07
-1.25459e-07
-1.24343e-07
-1.24398e-07
-1.24401e-07
-1.24347e-07
-1.42822e-07
-1.31736e-07
-1.28307e-07
-1.24239e-07
-1.26435e-07
-1.34293e-07
-1.37521e-07
-1.37653e-07
-1.36934e-07
-1.31744e-07
-1.34134e-07
-1.30066e-07
-1.29725e-07
-1.276e-07
-1.33987e-07
-1.28307e-07
-1.21977e-07
-1.22506e-07
-1.19869e-07
-1.18658e-07
-1.17774e-07
-1.17136e-07
-1.18902e-07
-1.23141e-07
-1.22663e-07
-1.19876e-07
-1.13358e-07
-1.22602e-07
-1.22615e-07
-1.22615e-07
-1.22601e-07
-1.23887e-07
-1.2486e-07
-1.18663e-07
-1.226e-07
-1.22864e-07
-1.22887e-07
-1.2289e-07
-1.22866e-07
-1.22603e-07
-1.32707e-07
-1.28478e-07
-1.21975e-07
-1.17771e-07
-1.22614e-07
-1.22887e-07
-1.22903e-07
-1.22906e-07
-1.22888e-07
-1.22616e-07
-1.35989e-07
-1.28105e-07
-1.22501e-07
-1.17136e-07
-1.22614e-07
-1.22887e-07
-1.22905e-07
-1.22907e-07
-1.22887e-07
-1.22616e-07
-1.36083e-07
-1.25972e-07
-1.18898e-07
-1.226e-07
-1.22864e-07
-1.22887e-07
-1.2289e-07
-1.22866e-07
-1.22601e-07
-1.35239e-07
-1.32392e-07
-1.23136e-07
-1.2388e-07
-1.22599e-07
-1.22613e-07
-1.22613e-07
-1.226e-07
-1.41333e-07
-1.30104e-07
-1.2674e-07
-1.22664e-07
-1.24862e-07
-1.32703e-07
-1.35986e-07
-1.36087e-07
-1.35248e-07
-1.30116e-07
-1.32573e-07
-1.28473e-07
-1.28107e-07
-1.25974e-07
-1.32389e-07
-1.26737e-07
-1.20229e-07
-1.20756e-07
-1.18134e-07
-1.16901e-07
-1.15973e-07
-1.15333e-07
-1.17151e-07
-1.214e-07
-1.20943e-07
-1.18137e-07
-1.11549e-07
-1.20817e-07
-1.20821e-07
-1.2082e-07
-1.20819e-07
-1.22156e-07
-1.2314e-07
-1.16902e-07
-1.20821e-07
-1.20915e-07
-1.20925e-07
-1.20925e-07
-1.20916e-07
-1.20821e-07
-1.30964e-07
-1.26731e-07
-1.2023e-07
-1.1597e-07
-1.20822e-07
-1.20925e-07
-1.20929e-07
-1.20929e-07
-1.20925e-07
-1.20822e-07
-1.34261e-07
-1.26366e-07
-1.20757e-07
-1.15333e-07
-1.2082e-07
-1.20924e-07
-1.20929e-07
-1.20928e-07
-1.20924e-07
-1.20822e-07
-1.3435e-07
-1.24226e-07
-1.17154e-07
-1.20819e-07
-1.20914e-07
-1.20924e-07
-1.20924e-07
-1.20914e-07
-1.2082e-07
-1.33472e-07
-1.30656e-07
-1.21407e-07
-1.22159e-07
-1.20818e-07
-1.2082e-07
-1.20822e-07
-1.2082e-07
-1.39646e-07
-1.28366e-07
-1.25011e-07
-1.20939e-07
-1.23134e-07
-1.30961e-07
-1.34261e-07
-1.34355e-07
-1.33483e-07
-1.28381e-07
-1.30866e-07
-1.2674e-07
-1.26365e-07
-1.24228e-07
-1.30656e-07
-1.25012e-07
-1.18447e-07
-1.18973e-07
-1.1636e-07
-1.15109e-07
-1.14156e-07
-1.13528e-07
-1.15378e-07
-1.19622e-07
-1.19168e-07
-1.16362e-07
-1.09747e-07
-1.1903e-07
-1.19022e-07
-1.19023e-07
-1.1903e-07
-1.20381e-07
-1.21367e-07
-1.15109e-07
-1.19025e-07
-1.1906e-07
-1.19063e-07
-1.19063e-07
-1.1906e-07
-1.19023e-07
-1.29188e-07
-1.24961e-07
-1.18448e-07
-1.14156e-07
-1.19021e-07
-1.19064e-07
-1.19065e-07
-1.19065e-07
-1.19064e-07
-1.19025e-07
-1.32486e-07
-1.24587e-07
-1.18973e-07
-1.13531e-07
-1.19024e-07
-1.19065e-07
-1.19066e-07
-1.19065e-07
-1.19064e-07
-1.19025e-07
-1.32566e-07
-1.22443e-07
-1.15383e-07
-1.19025e-07
-1.19059e-07
-1.19063e-07
-1.19062e-07
-1.19059e-07
-1.19026e-07
-1.31685e-07
-1.28885e-07
-1.19628e-07
-1.20383e-07
-1.19026e-07
-1.19026e-07
-1.19026e-07
-1.19027e-07
-1.37888e-07
-1.26587e-07
-1.23243e-07
-1.19166e-07
-1.21364e-07
-1.29185e-07
-1.32487e-07
-1.32564e-07
-1.31691e-07
-1.26598e-07
-1.29095e-07
-1.24972e-07
-1.24585e-07
-1.22442e-07
-1.28888e-07
-1.23239e-07
-1.16652e-07
-1.17178e-07
-1.14567e-07
-1.13313e-07
-1.12354e-07
-1.11732e-07
-1.1359e-07
-1.17832e-07
-1.17377e-07
-1.14569e-07
-1.07945e-07
-1.17228e-07
-1.17231e-07
-1.17232e-07
-1.17228e-07
-1.18589e-07
-1.19575e-07
-1.13314e-07
-1.17231e-07
-1.1724e-07
-1.17242e-07
-1.17243e-07
-1.17238e-07
-1.1723e-07
-1.27389e-07
-1.23168e-07
-1.16654e-07
-1.12354e-07
-1.17231e-07
-1.17242e-07
-1.17244e-07
-1.17245e-07
-1.17241e-07
-1.1723e-07
-1.30688e-07
-1.22792e-07
-1.17179e-07
-1.11732e-07
-1.17231e-07
-1.17243e-07
-1.17244e-07
-1.17244e-07
-1.17242e-07
-1.1723e-07
-1.30766e-07
-1.20647e-07
-1.13591e-07
-1.1723e-07
-1.1724e-07
-1.17241e-07
-1.17242e-07
-1.1724e-07
-1.17229e-07
-1.2988e-07
-1.27093e-07
-1.17836e-07
-1.18592e-07
-1.1723e-07
-1.17231e-07
-1.17231e-07
-1.17228e-07
-1.36106e-07
-1.248e-07
-1.21452e-07
-1.17376e-07
-1.19575e-07
-1.27392e-07
-1.30693e-07
-1.30771e-07
-1.29894e-07
-1.24811e-07
-1.27306e-07
-1.23179e-07
-1.22794e-07
-1.20647e-07
-1.27097e-07
-1.21455e-07
-1.14858e-07
-1.15383e-07
-1.12773e-07
-1.11518e-07
-1.10557e-07
-1.09932e-07
-1.11793e-07
-1.16037e-07
-1.15583e-07
-1.12775e-07
-1.06144e-07
-1.15432e-07
-1.15432e-07
-1.15431e-07
-1.1543e-07
-1.16796e-07
-1.17782e-07
-1.11517e-07
-1.15429e-07
-1.15439e-07
-1.1544e-07
-1.15439e-07
-1.15438e-07
-1.15435e-07
-1.25597e-07
-1.21374e-07
-1.14859e-07
-1.10556e-07
-1.15432e-07
-1.15441e-07
-1.1544e-07
-1.1544e-07
-1.15438e-07
-1.15435e-07
-1.28898e-07
-1.20998e-07
-1.15384e-07
-1.09932e-07
-1.15432e-07
-1.15437e-07
-1.15437e-07
-1.15439e-07
-1.15438e-07
-1.15434e-07
-1.28973e-07
-1.18854e-07
-1.11796e-07
-1.15434e-07
-1.15442e-07
-1.15443e-07
-1.15441e-07
-1.15439e-07
-1.15432e-07
-1.28085e-07
-1.25297e-07
-1.1604e-07
-1.168e-07
-1.15429e-07
-1.1543e-07
-1.15431e-07
-1.15429e-07
-1.3431e-07
-1.23004e-07
-1.19656e-07
-1.15582e-07
-1.17782e-07
-1.25598e-07
-1.289e-07
-1.28977e-07
-1.28099e-07
-1.23016e-07
-1.25514e-07
-1.21383e-07
-1.20998e-07
-1.18852e-07
-1.25301e-07
-1.19657e-07
-1.13062e-07
-1.13588e-07
-1.10978e-07
-1.0972e-07
-1.08757e-07
-1.08134e-07
-1.1e-07
-1.14243e-07
-1.13789e-07
-1.1098e-07
-1.04347e-07
-1.13636e-07
-1.13636e-07
-1.13636e-07
-1.13637e-07
-1.15003e-07
-1.15988e-07
-1.09721e-07
-1.13637e-07
-1.1364e-07
-1.1364e-07
-1.13639e-07
-1.13639e-07
-1.13637e-07
-1.23802e-07
-1.1958e-07
-1.13064e-07
-1.08758e-07
-1.13636e-07
-1.13637e-07
-1.1364e-07
-1.13637e-07
-1.1364e-07
-1.13636e-07
-1.27102e-07
-1.19203e-07
-1.13589e-07
-1.08135e-07
-1.13637e-07
-1.1364e-07
-1.13641e-07
-1.13638e-07
-1.13642e-07
-1.13637e-07
-1.27177e-07
-1.17059e-07
-1.10003e-07
-1.13635e-07
-1.13639e-07
-1.13639e-07
-1.13638e-07
-1.13639e-07
-1.13635e-07
-1.26289e-07
-1.23504e-07
-1.14247e-07
-1.15008e-07
-1.13637e-07
-1.13637e-07
-1.13636e-07
-1.13637e-07
-1.32516e-07
-1.21211e-07
-1.17864e-07
-1.13788e-07
-1.15988e-07
-1.23803e-07
-1.27109e-07
-1.27183e-07
-1.26305e-07
-1.21222e-07
-1.23721e-07
-1.1959e-07
-1.19204e-07
-1.17058e-07
-1.23508e-07
-1.17865e-07
-1.11264e-07
-1.11791e-07
-1.09184e-07
-1.07918e-07
-1.06959e-07
-1.06338e-07
-1.08204e-07
-1.12444e-07
-1.11995e-07
-1.09186e-07
-1.02557e-07
-1.11841e-07
-1.11841e-07
-1.11842e-07
-1.11842e-07
-1.13207e-07
-1.14194e-07
-1.07926e-07
-1.11842e-07
-1.1184e-07
-1.11841e-07
-1.11841e-07
-1.1184e-07
-1.11842e-07
-1.22005e-07
-1.17784e-07
-1.11268e-07
-1.06962e-07
-1.11841e-07
-1.11841e-07
-1.11842e-07
-1.11842e-07
-1.11841e-07
-1.11841e-07
-1.25305e-07
-1.17406e-07
-1.11794e-07
-1.0634e-07
-1.11842e-07
-1.11842e-07
-1.11842e-07
-1.11842e-07
-1.11841e-07
-1.11841e-07
-1.25379e-07
-1.15261e-07
-1.08209e-07
-1.11842e-07
-1.11841e-07
-1.11841e-07
-1.11841e-07
-1.1184e-07
-1.11842e-07
-1.24492e-07
-1.21708e-07
-1.12451e-07
-1.13213e-07
-1.11842e-07
-1.11841e-07
-1.11841e-07
-1.11842e-07
-1.30719e-07
-1.19414e-07
-1.16067e-07
-1.11993e-07
-1.14193e-07
-1.22007e-07
-1.25313e-07
-1.25386e-07
-1.24507e-07
-1.19425e-07
-1.21924e-07
-1.17794e-07
-1.17408e-07
-1.15262e-07
-1.21713e-07
-1.16069e-07
-1.0947e-07
-1.09997e-07
-1.07395e-07
-1.06122e-07
-1.05165e-07
-1.04544e-07
-1.06413e-07
-1.10653e-07
-1.10197e-07
-1.0739e-07
-1.0076e-07
-1.10046e-07
-1.10045e-07
-1.10046e-07
-1.10046e-07
-1.11414e-07
-1.12397e-07
-1.0613e-07
-1.10046e-07
-1.10046e-07
-1.10046e-07
-1.10046e-07
-1.10046e-07
-1.10046e-07
-1.20209e-07
-1.15988e-07
-1.09472e-07
-1.05165e-07
-1.10045e-07
-1.10046e-07
-1.10046e-07
-1.10046e-07
-1.10046e-07
-1.10045e-07
-1.23507e-07
-1.1561e-07
-1.09997e-07
-1.04543e-07
-1.10045e-07
-1.10046e-07
-1.10046e-07
-1.10046e-07
-1.10046e-07
-1.10045e-07
-1.23583e-07
-1.13465e-07
-1.06413e-07
-1.10046e-07
-1.10046e-07
-1.10046e-07
-1.10046e-07
-1.10046e-07
-1.10046e-07
-1.22697e-07
-1.19912e-07
-1.10655e-07
-1.11418e-07
-1.10046e-07
-1.10046e-07
-1.10046e-07
-1.10046e-07
-1.28924e-07
-1.17619e-07
-1.14272e-07
-1.10197e-07
-1.12397e-07
-1.20212e-07
-1.23516e-07
-1.2359e-07
-1.22712e-07
-1.1763e-07
-1.20129e-07
-1.15998e-07
-1.15611e-07
-1.13466e-07
-1.19917e-07
-1.14274e-07
-1.07674e-07
-1.08201e-07
-1.05595e-07
-1.04326e-07
-1.03368e-07
-1.02748e-07
-1.04618e-07
-1.08859e-07
-1.08402e-07
-1.05595e-07
-9.89628e-08
-1.0825e-07
-1.0825e-07
-1.0825e-07
-1.0825e-07
-1.09619e-07
-1.10601e-07
-1.04334e-07
-1.0825e-07
-1.0825e-07
-1.0825e-07
-1.0825e-07
-1.0825e-07
-1.0825e-07
-1.18414e-07
-1.14192e-07
-1.07677e-07
-1.0337e-07
-1.0825e-07
-1.0825e-07
-1.0825e-07
-1.0825e-07
-1.0825e-07
-1.0825e-07
-1.21712e-07
-1.13815e-07
-1.08202e-07
-1.02747e-07
-1.0825e-07
-1.0825e-07
-1.08251e-07
-1.08251e-07
-1.0825e-07
-1.0825e-07
-1.21788e-07
-1.1167e-07
-1.04617e-07
-1.0825e-07
-1.0825e-07
-1.0825e-07
-1.0825e-07
-1.0825e-07
-1.0825e-07
-1.20902e-07
-1.18117e-07
-1.08859e-07
-1.09622e-07
-1.0825e-07
-1.0825e-07
-1.0825e-07
-1.0825e-07
-1.27129e-07
-1.15824e-07
-1.12477e-07
-1.08402e-07
-1.10602e-07
-1.18417e-07
-1.21721e-07
-1.21797e-07
-1.20917e-07
-1.15835e-07
-1.18334e-07
-1.14203e-07
-1.13817e-07
-1.11671e-07
-1.18122e-07
-1.12479e-07
-1.05879e-07
-1.06406e-07
-1.03802e-07
-1.02531e-07
-1.01574e-07
-1.00953e-07
-1.02822e-07
-1.07064e-07
-1.06606e-07
-1.03799e-07
-9.71675e-08
-1.06454e-07
-1.06454e-07
-1.06454e-07
-1.06454e-07
-1.07824e-07
-1.08805e-07
-1.02539e-07
-1.06454e-07
-1.06454e-07
-1.06454e-07
-1.06454e-07
-1.06454e-07
-1.06454e-07
-1.16618e-07
-1.12397e-07
-1.05881e-07
-1.01574e-07
-1.06454e-07
-1.06454e-07
-1.06454e-07
-1.06454e-07
-1.06454e-07
-1.06454e-07
-1.19916e-07
-1.1202e-07
-1.06406e-07
-1.00951e-07
-1.06454e-07
-1.06454e-07
-1.06454e-07
-1.06454e-07
-1.06454e-07
-1.06454e-07
-1.19992e-07
-1.09874e-07
-1.02822e-07
-1.06454e-07
-1.06454e-07
-1.06454e-07
-1.06454e-07
-1.06454e-07
-1.06454e-07
-1.19106e-07
-1.16322e-07
-1.07064e-07
-1.07826e-07
-1.06454e-07
-1.06454e-07
-1.06454e-07
-1.06454e-07
-1.25334e-07
-1.14029e-07
-1.10681e-07
-1.06606e-07
-1.08806e-07
-1.16621e-07
-1.19926e-07
-1.20001e-07
-1.19121e-07
-1.14039e-07
-1.16538e-07
-1.12408e-07
-1.12021e-07
-1.09875e-07
-1.16326e-07
-1.10683e-07
-1.04083e-07
-1.04609e-07
-1.02006e-07
-1.00734e-07
-9.97767e-08
-9.91561e-08
-1.01026e-07
-1.05265e-07
-1.04808e-07
-1.02003e-07
-9.53712e-08
-1.04658e-07
-1.04658e-07
-1.04658e-07
-1.04657e-07
-1.06026e-07
-1.07008e-07
-1.00742e-07
-1.04658e-07
-1.04658e-07
-1.04658e-07
-1.04658e-07
-1.04658e-07
-1.04658e-07
-1.14821e-07
-1.106e-07
-1.04085e-07
-9.97778e-08
-1.04658e-07
-1.04658e-07
-1.04658e-07
-1.04658e-07
-1.04658e-07
-1.04658e-07
-1.1812e-07
-1.10223e-07
-1.0461e-07
-9.9155e-08
-1.04658e-07
-1.04658e-07
-1.04658e-07
-1.04658e-07
-1.04658e-07
-1.04658e-07
-1.18195e-07
-1.08077e-07
-1.01025e-07
-1.04658e-07
-1.04658e-07
-1.04658e-07
-1.04658e-07
-1.04658e-07
-1.04658e-07
-1.17309e-07
-1.14525e-07
-1.05268e-07
-1.0603e-07
-1.04658e-07
-1.04658e-07
-1.04658e-07
-1.04658e-07
-1.23537e-07
-1.12232e-07
-1.08885e-07
-1.0481e-07
-1.0701e-07
-1.14824e-07
-1.18129e-07
-1.18204e-07
-1.17324e-07
-1.12243e-07
-1.14742e-07
-1.10611e-07
-1.10224e-07
-1.08079e-07
-1.14529e-07
-1.08886e-07
-1.02287e-07
-1.02813e-07
-1.00209e-07
-9.89379e-08
-9.79802e-08
-9.73596e-08
-9.92291e-08
-1.0347e-07
-1.03012e-07
-1.00206e-07
-9.35759e-08
-1.02861e-07
-1.02861e-07
-1.02861e-07
-1.02861e-07
-1.0423e-07
-1.05211e-07
-9.89454e-08
-1.02861e-07
-1.02861e-07
-1.02861e-07
-1.02861e-07
-1.02861e-07
-1.02861e-07
-1.13024e-07
-1.08803e-07
-1.02288e-07
-9.79811e-08
-1.02861e-07
-1.02861e-07
-1.02861e-07
-1.02861e-07
-1.02861e-07
-1.02861e-07
-1.16323e-07
-1.08426e-07
-1.02814e-07
-9.73583e-08
-1.02861e-07
-1.02861e-07
-1.02861e-07
-1.02861e-07
-1.02861e-07
-1.02861e-07
-1.16398e-07
-1.0628e-07
-9.92285e-08
-1.02861e-07
-1.02861e-07
-1.02861e-07
-1.02861e-07
-1.02861e-07
-1.02861e-07
-1.15512e-07
-1.12728e-07
-1.03471e-07
-1.04233e-07
-1.02861e-07
-1.02861e-07
-1.02861e-07
-1.02861e-07
-1.2174e-07
-1.10435e-07
-1.07088e-07
-1.03013e-07
-1.05213e-07
-1.13028e-07
-1.16333e-07
-1.16409e-07
-1.15528e-07
-1.10446e-07
-1.12945e-07
-1.08814e-07
-1.08429e-07
-1.06282e-07
-1.12733e-07
-1.0709e-07
-1.0049e-07
-1.01016e-07
-9.8412e-08
-9.71417e-08
-9.61837e-08
-9.55631e-08
-9.74326e-08
-1.01671e-07
-1.01216e-07
-9.84089e-08
-9.17783e-08
-1.01064e-07
-1.01064e-07
-1.01064e-07
-1.01064e-07
-1.02433e-07
-1.03415e-07
-9.71485e-08
-1.01064e-07
-1.01064e-07
-1.01064e-07
-1.01064e-07
-1.01064e-07
-1.01064e-07
-1.11228e-07
-1.07006e-07
-1.00491e-07
-9.61843e-08
-1.01064e-07
-1.01064e-07
-1.01064e-07
-1.01064e-07
-1.01064e-07
-1.01064e-07
-1.14526e-07
-1.06629e-07
-1.01017e-07
-9.55616e-08
-1.01064e-07
-1.01064e-07
-1.01064e-07
-1.01064e-07
-1.01064e-07
-1.01064e-07
-1.14601e-07
-1.04484e-07
-9.74319e-08
-1.01064e-07
-1.01064e-07
-1.01064e-07
-1.01064e-07
-1.01064e-07
-1.01064e-07
-1.13716e-07
-1.10931e-07
-1.01674e-07
-1.02437e-07
-1.01064e-07
-1.01064e-07
-1.01064e-07
-1.01064e-07
-1.19944e-07
-1.08638e-07
-1.05291e-07
-1.01216e-07
-1.03416e-07
-1.11231e-07
-1.14536e-07
-1.14611e-07
-1.13731e-07
-1.08649e-07
-1.11148e-07
-1.07018e-07
-1.06631e-07
-1.04485e-07
-1.10937e-07
-1.05293e-07
-9.86933e-08
-9.92197e-08
-9.66164e-08
-9.53449e-08
-9.43871e-08
-9.37665e-08
-9.56364e-08
-9.98751e-08
-9.94191e-08
-9.6613e-08
-8.99823e-08
-9.92682e-08
-9.92681e-08
-9.92681e-08
-9.92681e-08
-1.00637e-07
-1.01618e-07
-9.53522e-08
-9.92681e-08
-9.92681e-08
-9.92681e-08
-9.92681e-08
-9.92681e-08
-9.92682e-08
-1.09433e-07
-1.0521e-07
-9.86949e-08
-9.43879e-08
-9.92681e-08
-9.92681e-08
-9.92681e-08
-9.92681e-08
-9.92681e-08
-9.92681e-08
-1.1273e-07
-1.04833e-07
-9.92202e-08
-9.37652e-08
-9.92681e-08
-9.92681e-08
-9.92681e-08
-9.92681e-08
-9.92681e-08
-9.92681e-08
-1.12805e-07
-1.02688e-07
-9.56356e-08
-9.92681e-08
-9.92681e-08
-9.92681e-08
-9.92681e-08
-9.9268e-08
-9.92681e-08
-1.1192e-07
-1.09135e-07
-9.98778e-08
-1.0064e-07
-9.92681e-08
-9.9268e-08
-9.92681e-08
-9.92681e-08
-1.18147e-07
-1.06842e-07
-1.03495e-07
-9.942e-08
-1.0162e-07
-1.09435e-07
-1.12738e-07
-1.12812e-07
-1.11935e-07
-1.06853e-07
-1.09352e-07
-1.05221e-07
-1.04835e-07
-1.02688e-07
-1.0914e-07
-1.03497e-07
-9.68972e-08
-9.74235e-08
-9.48202e-08
-9.35487e-08
-9.25911e-08
-9.19705e-08
-9.38399e-08
-9.80808e-08
-9.7623e-08
-9.48169e-08
-8.81862e-08
-9.74722e-08
-9.74722e-08
-9.74722e-08
-9.74723e-08
-9.88413e-08
-9.98224e-08
-9.35562e-08
-9.74721e-08
-9.74721e-08
-9.74722e-08
-9.74722e-08
-9.74721e-08
-9.74721e-08
-1.07637e-07
-1.03414e-07
-9.68987e-08
-9.25918e-08
-9.74721e-08
-9.74721e-08
-9.74721e-08
-9.74722e-08
-9.74722e-08
-9.74722e-08
-1.10934e-07
-1.03037e-07
-9.74239e-08
-9.19691e-08
-9.7472e-08
-9.74721e-08
-9.74721e-08
-9.74722e-08
-9.74721e-08
-9.74721e-08
-1.11009e-07
-1.00892e-07
-9.38394e-08
-9.7472e-08
-9.74719e-08
-9.74719e-08
-9.74719e-08
-9.74719e-08
-9.74721e-08
-1.10124e-07
-1.07339e-07
-9.80815e-08
-9.88444e-08
-9.74721e-08
-9.74721e-08
-9.74723e-08
-9.74722e-08
-1.16352e-07
-1.05046e-07
-1.01699e-07
-9.76238e-08
-9.98242e-08
-1.07639e-07
-1.10944e-07
-1.11019e-07
-1.10139e-07
-1.05057e-07
-1.07556e-07
-1.03426e-07
-1.0304e-07
-1.00895e-07
-1.07345e-07
-1.01701e-07
-9.51011e-08
-9.56275e-08
-9.30245e-08
-9.17529e-08
-9.07951e-08
-9.01745e-08
-9.20445e-08
-9.62858e-08
-9.58271e-08
-9.30212e-08
-8.63905e-08
-9.56765e-08
-9.56764e-08
-9.56764e-08
-9.56765e-08
-9.70458e-08
-9.80268e-08
-9.17603e-08
-9.56764e-08
-9.56763e-08
-9.56764e-08
-9.56764e-08
-9.56763e-08
-9.56765e-08
-1.05841e-07
-1.01619e-07
-9.51025e-08
-9.07958e-08
-9.56763e-08
-9.56763e-08
-9.56763e-08
-9.56764e-08
-9.56764e-08
-9.56764e-08
-1.09138e-07
-1.01241e-07
-9.56276e-08
-9.0173e-08
-9.56763e-08
-9.56763e-08
-9.56763e-08
-9.56763e-08
-9.56763e-08
-9.56764e-08
-1.09214e-07
-9.90958e-08
-9.20433e-08
-9.56762e-08
-9.56762e-08
-9.56762e-08
-9.56762e-08
-9.56762e-08
-9.56764e-08
-1.08328e-07
-1.05543e-07
-9.62854e-08
-9.70484e-08
-9.56762e-08
-9.56762e-08
-9.56763e-08
-9.56763e-08
-1.14556e-07
-1.0325e-07
-9.99026e-08
-9.58277e-08
-9.80281e-08
-1.05842e-07
-1.09144e-07
-1.0922e-07
-1.08342e-07
-1.03261e-07
-1.0576e-07
-1.01629e-07
-1.01243e-07
-9.9097e-08
-1.0555e-07
-9.99046e-08
-9.33063e-08
-9.38327e-08
-9.12288e-08
-8.99576e-08
-8.90001e-08
-8.83794e-08
-9.02478e-08
-9.44905e-08
-9.40308e-08
-9.12254e-08
-8.45948e-08
-9.38811e-08
-9.38811e-08
-9.38811e-08
-9.38812e-08
-9.52489e-08
-9.62312e-08
-8.9965e-08
-9.38809e-08
-9.38809e-08
-9.3881e-08
-9.3881e-08
-9.38809e-08
-9.38811e-08
-1.04046e-07
-9.98236e-08
-9.33078e-08
-8.90008e-08
-9.3881e-08
-9.38809e-08
-9.38809e-08
-9.38809e-08
-9.38809e-08
-9.38811e-08
-1.07343e-07
-9.9446e-08
-9.3833e-08
-8.8378e-08
-9.3881e-08
-9.38808e-08
-9.38809e-08
-9.38809e-08
-9.38809e-08
-9.3881e-08
-1.07418e-07
-9.73007e-08
-9.02483e-08
-9.3881e-08
-9.38808e-08
-9.38808e-08
-9.38808e-08
-9.38808e-08
-9.38811e-08
-1.06533e-07
-1.03748e-07
-9.44902e-08
-9.5253e-08
-9.3881e-08
-9.38809e-08
-9.38809e-08
-9.38809e-08
-1.1276e-07
-1.01455e-07
-9.81074e-08
-9.40323e-08
-9.62327e-08
-1.04047e-07
-1.07349e-07
-1.07425e-07
-1.06548e-07
-1.01466e-07
-1.03964e-07
-9.98339e-08
-9.94477e-08
-9.73024e-08
-1.03754e-07
-9.81092e-08
-9.15105e-08
-9.20372e-08
-8.9435e-08
-8.81621e-08
-8.72037e-08
-8.65837e-08
-8.84527e-08
-9.26964e-08
-9.22367e-08
-8.94302e-08
-8.27996e-08
-9.20847e-08
-9.20849e-08
-9.2085e-08
-9.20851e-08
-9.34532e-08
-9.44357e-08
-8.81694e-08
-9.20849e-08
-9.2085e-08
-9.2085e-08
-9.2085e-08
-9.2085e-08
-9.20851e-08
-1.0225e-07
-9.80282e-08
-9.15121e-08
-8.7205e-08
-9.20849e-08
-9.20848e-08
-9.20849e-08
-9.20849e-08
-9.20849e-08
-9.2085e-08
-1.05547e-07
-9.76504e-08
-9.20374e-08
-8.65823e-08
-9.20849e-08
-9.20848e-08
-9.20848e-08
-9.20849e-08
-9.20849e-08
-9.2085e-08
-1.05623e-07
-9.55051e-08
-8.84526e-08
-9.20849e-08
-9.20848e-08
-9.20848e-08
-9.20848e-08
-9.20849e-08
-9.20851e-08
-1.04737e-07
-1.01953e-07
-9.26948e-08
-9.34573e-08
-9.20849e-08
-9.20849e-08
-9.20849e-08
-9.2085e-08
-1.10964e-07
-9.96593e-08
-9.63121e-08
-9.22369e-08
-9.44371e-08
-1.02252e-07
-1.05554e-07
-1.05629e-07
-1.04752e-07
-9.96702e-08
-1.02169e-07
-9.80385e-08
-9.76523e-08
-9.55073e-08
-1.01959e-07
-9.63121e-08
-8.9713e-08
-9.02396e-08
-8.7639e-08
-8.6364e-08
-8.54062e-08
-8.47863e-08
-8.66552e-08
-9.08991e-08
-9.04395e-08
-8.76341e-08
-8.10034e-08
-9.02877e-08
-9.02877e-08
-9.02878e-08
-9.02878e-08
-9.16556e-08
-9.26385e-08
-8.63724e-08
-9.02876e-08
-9.02876e-08
-9.02877e-08
-9.02877e-08
-9.02877e-08
-9.02877e-08
-1.00453e-07
-9.6231e-08
-8.97149e-08
-8.54078e-08
-9.02876e-08
-9.02876e-08
-9.02877e-08
-9.02877e-08
-9.02877e-08
-9.02877e-08
-1.0375e-07
-9.58531e-08
-9.02401e-08
-8.4785e-08
-9.02876e-08
-9.02876e-08
-9.02876e-08
-9.02877e-08
-9.02877e-08
-9.02877e-08
-1.03825e-07
-9.37076e-08
-8.66553e-08
-9.02876e-08
-9.02875e-08
-9.02876e-08
-9.02877e-08
-9.02876e-08
-9.02877e-08
-1.0294e-07
-1.00155e-07
-9.08978e-08
-9.16602e-08
-9.02875e-08
-9.02875e-08
-9.02875e-08
-9.02876e-08
-1.09167e-07
-9.78622e-08
-9.45152e-08
-9.04401e-08
-9.26401e-08
-1.00454e-07
-1.03757e-07
-1.03832e-07
-1.02955e-07
-9.78732e-08
-1.00372e-07
-9.62415e-08
-9.58551e-08
-9.37099e-08
-1.00162e-07
-9.45153e-08
-8.79157e-08
-8.84422e-08
-8.58407e-08
-8.45664e-08
-8.36091e-08
-8.2989e-08
-8.48576e-08
-8.9102e-08
-8.86422e-08
-8.58356e-08
-7.92054e-08
-8.84907e-08
-8.84907e-08
-8.84906e-08
-8.84905e-08
-8.98576e-08
-9.08406e-08
-8.45745e-08
-8.84903e-08
-8.84905e-08
-8.84906e-08
-8.84907e-08
-8.84907e-08
-8.84906e-08
-9.86554e-08
-9.44327e-08
-8.7917e-08
-8.36102e-08
-8.84904e-08
-8.84905e-08
-8.84905e-08
-8.84906e-08
-8.84905e-08
-8.84906e-08
-1.01952e-07
-9.40556e-08
-8.84423e-08
-8.29874e-08
-8.84903e-08
-8.84904e-08
-8.84905e-08
-8.84905e-08
-8.84905e-08
-8.84905e-08
-1.02028e-07
-9.19102e-08
-8.48577e-08
-8.84903e-08
-8.84903e-08
-8.84904e-08
-8.84904e-08
-8.84904e-08
-8.84904e-08
-1.01142e-07
-9.83576e-08
-8.90998e-08
-8.98625e-08
-8.84903e-08
-8.84904e-08
-8.84904e-08
-8.84904e-08
-1.0737e-07
-9.60645e-08
-9.27172e-08
-8.8642e-08
-9.08422e-08
-9.86567e-08
-1.01959e-07
-1.02035e-07
-1.01157e-07
-9.60753e-08
-9.85742e-08
-9.44437e-08
-9.40574e-08
-9.19125e-08
-9.83635e-08
-9.27172e-08
-8.6119e-08
-8.66457e-08
-8.40456e-08
-8.27689e-08
-8.18121e-08
-8.11927e-08
-8.30615e-08
-8.73045e-08
-8.68456e-08
-8.404e-08
-7.74098e-08
-8.66944e-08
-8.66944e-08
-8.66944e-08
-8.66943e-08
-8.80618e-08
-8.90447e-08
-8.27785e-08
-8.66942e-08
-8.66942e-08
-8.66942e-08
-8.66943e-08
-8.66943e-08
-8.66944e-08
-9.68593e-08
-9.26365e-08
-8.61207e-08
-8.18139e-08
-8.66942e-08
-8.66942e-08
-8.66942e-08
-8.66943e-08
-8.66943e-08
-8.66943e-08
-1.00156e-07
-9.22593e-08
-8.66458e-08
-8.1191e-08
-8.66941e-08
-8.66941e-08
-8.66942e-08
-8.66942e-08
-8.66942e-08
-8.66942e-08
-1.00231e-07
-9.01138e-08
-8.30613e-08
-8.66941e-08
-8.6694e-08
-8.66941e-08
-8.66941e-08
-8.66941e-08
-8.66942e-08
-9.93457e-08
-9.6561e-08
-8.73034e-08
-8.80662e-08
-8.66941e-08
-8.66941e-08
-8.66941e-08
-8.66941e-08
-1.05573e-07
-9.42679e-08
-9.09205e-08
-8.68456e-08
-8.90459e-08
-9.68603e-08
-1.00163e-07
-1.00238e-07
-9.93608e-08
-9.42787e-08
-9.67774e-08
-9.26471e-08
-9.22608e-08
-9.01158e-08
-9.65666e-08
-9.09203e-08
-8.43233e-08
-8.48501e-08
-8.22498e-08
-8.09723e-08
-8.00161e-08
-7.93968e-08
-8.1266e-08
-8.55094e-08
-8.50494e-08
-8.22441e-08
-7.56139e-08
-8.48982e-08
-8.48982e-08
-8.48981e-08
-8.48981e-08
-8.62652e-08
-8.72482e-08
-8.09826e-08
-8.4898e-08
-8.48979e-08
-8.48981e-08
-8.4898e-08
-8.4898e-08
-8.4898e-08
-9.5063e-08
-9.08402e-08
-8.43251e-08
-8.00181e-08
-8.4898e-08
-8.4898e-08
-8.48981e-08
-8.4898e-08
-8.4898e-08
-8.48981e-08
-9.83599e-08
-9.04633e-08
-8.48503e-08
-7.93953e-08
-8.4898e-08
-8.48979e-08
-8.48981e-08
-8.4898e-08
-8.4898e-08
-8.4898e-08
-9.84354e-08
-8.83178e-08
-8.12656e-08
-8.48981e-08
-8.4898e-08
-8.48981e-08
-8.48981e-08
-8.4898e-08
-8.48981e-08
-9.75497e-08
-9.47652e-08
-8.55077e-08
-8.62704e-08
-8.48981e-08
-8.48981e-08
-8.48981e-08
-8.48982e-08
-1.03777e-07
-9.24721e-08
-8.91248e-08
-8.50498e-08
-8.72501e-08
-9.50646e-08
-9.83671e-08
-9.84424e-08
-9.75652e-08
-9.24831e-08
-9.49818e-08
-9.08515e-08
-9.04654e-08
-8.83205e-08
-9.47714e-08
-8.91249e-08
-8.2526e-08
-8.30528e-08
-8.04529e-08
-7.91753e-08
-7.8219e-08
-7.75997e-08
-7.94694e-08
-8.37118e-08
-8.32526e-08
-8.04475e-08
-7.38172e-08
-8.31014e-08
-8.31015e-08
-8.31014e-08
-8.31014e-08
-8.44684e-08
-8.54516e-08
-7.91858e-08
-8.31013e-08
-8.31011e-08
-8.31014e-08
-8.31012e-08
-8.31013e-08
-8.31013e-08
-9.32663e-08
-8.90436e-08
-8.25281e-08
-7.82213e-08
-8.31013e-08
-8.31014e-08
-8.31015e-08
-8.31015e-08
-8.31015e-08
-8.31014e-08
-9.65632e-08
-8.86664e-08
-8.30534e-08
-7.75985e-08
-8.31012e-08
-8.31013e-08
-8.31015e-08
-8.31013e-08
-8.31015e-08
-8.31013e-08
-9.66388e-08
-8.6521e-08
-7.9469e-08
-8.31014e-08
-8.31013e-08
-8.31013e-08
-8.31014e-08
-8.31014e-08
-8.31015e-08
-9.57532e-08
-9.29686e-08
-8.37113e-08
-8.44739e-08
-8.31017e-08
-8.31018e-08
-8.31029e-08
-8.31017e-08
-1.01981e-07
-9.06758e-08
-8.73286e-08
-8.32537e-08
-8.54539e-08
-9.32683e-08
-9.65708e-08
-9.66462e-08
-9.57689e-08
-9.06868e-08
-9.31857e-08
-8.90554e-08
-8.8669e-08
-8.6524e-08
-9.29751e-08
-8.73289e-08
-8.07293e-08
-8.1256e-08
-7.86563e-08
-7.73789e-08
-7.64223e-08
-7.58031e-08
-7.76728e-08
-8.19153e-08
-8.14561e-08
-7.8651e-08
-7.20206e-08
-8.13049e-08
-8.1305e-08
-8.13049e-08
-8.1305e-08
-8.26724e-08
-8.36552e-08
-7.73894e-08
-8.13049e-08
-8.13047e-08
-8.13049e-08
-8.13048e-08
-8.13048e-08
-8.13049e-08
-9.14699e-08
-8.72469e-08
-8.07319e-08
-7.64253e-08
-8.13049e-08
-8.13048e-08
-8.13049e-08
-8.13049e-08
-8.13049e-08
-8.13048e-08
-9.47666e-08
-8.68698e-08
-8.12571e-08
-7.58033e-08
-8.13049e-08
-8.13048e-08
-8.13049e-08
-8.13048e-08
-8.13048e-08
-8.13048e-08
-9.48421e-08
-8.47244e-08
-7.76723e-08
-8.13049e-08
-8.13048e-08
-8.13049e-08
-8.13049e-08
-8.13048e-08
-8.13048e-08
-9.39564e-08
-9.11718e-08
-8.19146e-08
-8.26772e-08
-8.13049e-08
-8.13049e-08
-8.13048e-08
-8.13049e-08
-1.00184e-07
-8.88788e-08
-8.55315e-08
-8.14568e-08
-8.36572e-08
-9.14733e-08
-9.47751e-08
-9.48511e-08
-9.39726e-08
-8.88899e-08
-9.13886e-08
-8.7258e-08
-8.68718e-08
-8.47272e-08
-9.11779e-08
-8.55316e-08
-7.89335e-08
-7.94603e-08
-7.68603e-08
-7.5583e-08
-7.46264e-08
-7.40073e-08
-7.58771e-08
-8.01179e-08
-7.96599e-08
-7.68546e-08
-7.02233e-08
-7.95088e-08
-7.95089e-08
-7.95088e-08
-7.9509e-08
-8.08803e-08
-8.18594e-08
-7.55933e-08
-7.95091e-08
-7.95086e-08
-7.95089e-08
-7.95087e-08
-7.95088e-08
-7.95088e-08
-8.96739e-08
-8.54508e-08
-7.89358e-08
-7.46292e-08
-7.95087e-08
-7.95087e-08
-7.95088e-08
-7.95088e-08
-7.95088e-08
-7.95089e-08
-9.29705e-08
-8.50737e-08
-7.94612e-08
-7.40074e-08
-7.9509e-08
-7.95087e-08
-7.95088e-08
-7.95087e-08
-7.95087e-08
-7.95088e-08
-9.3046e-08
-8.29283e-08
-7.58764e-08
-7.95089e-08
-7.95087e-08
-7.95088e-08
-7.95088e-08
-7.95087e-08
-7.95089e-08
-9.21602e-08
-8.93755e-08
-8.01185e-08
-8.08811e-08
-7.95089e-08
-7.95088e-08
-7.95088e-08
-7.95089e-08
-9.83879e-08
-8.70825e-08
-8.3735e-08
-7.96606e-08
-8.18611e-08
-8.96772e-08
-9.29791e-08
-9.30551e-08
-9.21764e-08
-8.70937e-08
-8.95922e-08
-8.5462e-08
-8.50759e-08
-8.29314e-08
-8.93819e-08
-8.37353e-08
-7.71374e-08
-7.7664e-08
-7.50632e-08
-7.3788e-08
-7.28304e-08
-7.22109e-08
-7.40807e-08
-7.83234e-08
-7.7864e-08
-7.50583e-08
-6.8428e-08
-7.77124e-08
-7.77126e-08
-7.77123e-08
-7.77125e-08
-7.90836e-08
-8.00634e-08
-7.37969e-08
-7.77122e-08
-7.77121e-08
-7.7712e-08
-7.77122e-08
-7.77122e-08
-7.7712e-08
-8.78777e-08
-8.36548e-08
-7.71394e-08
-7.28328e-08