/*--------------------------------*- C++ -*----------------------------------*\
| =========                 |                                                 |
| \\      /  F ield         | OpenFOAM: The Open Source CFD Toolbox           |
|  \\    /   O peration     | Version:  v2012                                 |
|   \\  /    A nd           | Website:  www.openfoam.com                      |
|    \\/     M anipulation  |                                                 |
\*---------------------------------------------------------------------------*/
FoamFile
{
    version     2.0;
    format      ascii;
    class       volScalarField;
    location    "0.315";
    object      p;
}
// * * * * * * * * * * * * * * * * * * * * * * * * * * * * * * * * * * * * * //

dimensions      [0 2 -2 0 0 0 0];


internalField   nonuniform List<scalar> 
189320
(
5.63231e-07
5.6349e-07
5.56176e-07
5.55742e-07
5.53765e-07
5.53114e-07
5.55032e-07
5.56319e-07
5.53361e-07
5.56158e-07
5.52565e-07
5.53269e-07
5.52396e-07
5.52198e-07
5.52825e-07
5.52964e-07
5.54667e-07
5.55727e-07
5.53252e-07
5.51907e-07
5.51336e-07
5.51222e-07
5.51612e-07
5.52487e-07
5.52573e-07
5.56933e-07
5.63139e-07
5.53711e-07
5.52386e-07
5.51333e-07
5.50877e-07
5.50795e-07
5.5106e-07
5.51795e-07
5.53208e-07
5.5626e-07
5.6342e-07
5.53099e-07
5.5219e-07
5.5122e-07
5.50797e-07
5.50717e-07
5.50954e-07
5.51613e-07
5.53131e-07
5.54632e-07
5.55022e-07
5.52823e-07
5.51615e-07
5.51064e-07
5.50956e-07
5.51294e-07
5.52116e-07
5.53045e-07
5.65523e-07
5.56316e-07
5.52967e-07
5.52496e-07
5.51808e-07
5.51622e-07
5.52118e-07
5.53059e-07
5.52452e-07
5.56471e-07
5.53363e-07
5.54679e-07
5.526e-07
5.53239e-07
5.5315e-07
5.53053e-07
5.52452e-07
5.51603e-07
5.5695e-07
5.5629e-07
5.5467e-07
5.65543e-07
5.56482e-07
5.44384e-07
5.44161e-07
5.45843e-07
5.44299e-07
5.44376e-07
5.44131e-07
5.44182e-07
5.43861e-07
5.44448e-07
5.45841e-07
5.457e-07
5.38739e-07
5.38537e-07
5.3854e-07
5.38724e-07
5.40476e-07
5.41082e-07
5.44279e-07
5.38734e-07
5.37514e-07
5.38041e-07
5.38033e-07
5.37516e-07
5.38753e-07
5.37403e-07
5.40773e-07
5.44372e-07
5.44375e-07
5.38537e-07
5.3803e-07
5.38244e-07
5.3824e-07
5.38037e-07
5.3853e-07
5.36978e-07
5.40344e-07
5.44157e-07
5.44135e-07
5.38541e-07
5.38031e-07
5.3824e-07
5.38239e-07
5.3804e-07
5.38536e-07
5.36918e-07
5.40812e-07
5.44186e-07
5.38721e-07
5.37514e-07
5.38036e-07
5.38027e-07
5.37518e-07
5.38739e-07
5.37014e-07
5.37874e-07
5.43865e-07
5.40499e-07
5.38754e-07
5.38537e-07
5.38537e-07
5.38737e-07
5.32265e-07
5.3881e-07
5.42282e-07
5.4445e-07
5.41084e-07
5.37409e-07
5.36978e-07
5.36921e-07
5.37017e-07
5.38787e-07
5.3844e-07
5.40778e-07
5.40352e-07
5.4081e-07
5.37868e-07
5.4228e-07
5.38389e-07
5.37936e-07
5.39783e-07
5.38633e-07
5.39007e-07
5.39116e-07
5.38306e-07
5.37697e-07
5.3815e-07
5.39781e-07
5.41258e-07
5.33842e-07
5.33745e-07
5.33743e-07
5.33843e-07
5.35866e-07
5.35295e-07
5.38632e-07
5.3384e-07
5.33009e-07
5.33056e-07
5.33046e-07
5.33016e-07
5.33845e-07
5.30373e-07
5.34497e-07
5.38385e-07
5.39005e-07
5.33743e-07
5.33046e-07
5.33081e-07
5.33076e-07
5.33052e-07
5.33743e-07
5.28953e-07
5.34663e-07
5.37934e-07
5.39114e-07
5.33745e-07
5.33044e-07
5.33077e-07
5.33076e-07
5.33054e-07
5.33744e-07
5.2902e-07
5.34477e-07
5.383e-07
5.33839e-07
5.33011e-07
5.33052e-07
5.33044e-07
5.33015e-07
5.33845e-07
5.2921e-07
5.31813e-07
5.37696e-07
5.35866e-07
5.33845e-07
5.33744e-07
5.33743e-07
5.33844e-07
5.25688e-07
5.32192e-07
5.35376e-07
5.38145e-07
5.3529e-07
5.30377e-07
5.28958e-07
5.29023e-07
5.29218e-07
5.32198e-07
5.31896e-07
5.34541e-07
5.34669e-07
5.34481e-07
5.31821e-07
5.35414e-07
5.32585e-07
5.32121e-07
5.3395e-07
5.3302e-07
5.33466e-07
5.3364e-07
5.32631e-07
5.31914e-07
5.32286e-07
5.33951e-07
5.35763e-07
5.2838e-07
5.28348e-07
5.28347e-07
5.28378e-07
5.30008e-07
5.29411e-07
5.33016e-07
5.2838e-07
5.28066e-07
5.28048e-07
5.28045e-07
5.28066e-07
5.28381e-07
5.24622e-07
5.28691e-07
5.32586e-07
5.33469e-07
5.28352e-07
5.28046e-07
5.28038e-07
5.28036e-07
5.28046e-07
5.28347e-07
5.22749e-07
5.28796e-07
5.32122e-07
5.33642e-07
5.2835e-07
5.28044e-07
5.28036e-07
5.28035e-07
5.28046e-07
5.28348e-07
5.22762e-07
5.28621e-07
5.32633e-07
5.28381e-07
5.28065e-07
5.28046e-07
5.28044e-07
5.28066e-07
5.28378e-07
5.23069e-07
5.25945e-07
5.31912e-07
5.30008e-07
5.28382e-07
5.28351e-07
5.2835e-07
5.2838e-07
5.19508e-07
5.26209e-07
5.29551e-07
5.32282e-07
5.2941e-07
5.24628e-07
5.22754e-07
5.22762e-07
5.23062e-07
5.26207e-07
5.25998e-07
5.28698e-07
5.28792e-07
5.28625e-07
5.25945e-07
5.29553e-07
5.27e-07
5.26533e-07
5.28358e-07
5.27477e-07
5.2798e-07
5.28161e-07
5.27057e-07
5.26325e-07
5.26677e-07
5.2835e-07
5.30277e-07
5.22873e-07
5.22866e-07
5.22866e-07
5.22874e-07
5.24407e-07
5.23801e-07
5.27473e-07
5.22873e-07
5.22758e-07
5.22756e-07
5.22754e-07
5.22759e-07
5.22873e-07
5.18998e-07
5.23096e-07
5.27e-07
5.27982e-07
5.22865e-07
5.22755e-07
5.22751e-07
5.2275e-07
5.22755e-07
5.22866e-07
5.17061e-07
5.23191e-07
5.26535e-07
5.28159e-07
5.22866e-07
5.22755e-07
5.2275e-07
5.22749e-07
5.22756e-07
5.22866e-07
5.17098e-07
5.23029e-07
5.27054e-07
5.22873e-07
5.22758e-07
5.22755e-07
5.22753e-07
5.22758e-07
5.22874e-07
5.17474e-07
5.20334e-07
5.26327e-07
5.2441e-07
5.22874e-07
5.22866e-07
5.22866e-07
5.22874e-07
5.13842e-07
5.2062e-07
5.23939e-07
5.26678e-07
5.238e-07
5.19e-07
5.17064e-07
5.17094e-07
5.1747e-07
5.20617e-07
5.20388e-07
5.23096e-07
5.23189e-07
5.23028e-07
5.20335e-07
5.23939e-07
5.21483e-07
5.21017e-07
5.22832e-07
5.21971e-07
5.22494e-07
5.22674e-07
5.21538e-07
5.20805e-07
5.21151e-07
5.2283e-07
5.24792e-07
5.17376e-07
5.17374e-07
5.17374e-07
5.17375e-07
5.18882e-07
5.18273e-07
5.21969e-07
5.17374e-07
5.17335e-07
5.17332e-07
5.17332e-07
5.17334e-07
5.17374e-07
5.13474e-07
5.17584e-07
5.21482e-07
5.22494e-07
5.17373e-07
5.17332e-07
5.17331e-07
5.17331e-07
5.17332e-07
5.17373e-07
5.11517e-07
5.17665e-07
5.21017e-07
5.22674e-07
5.17374e-07
5.17332e-07
5.17331e-07
5.17331e-07
5.17332e-07
5.17373e-07
5.11556e-07
5.17508e-07
5.21538e-07
5.17375e-07
5.17334e-07
5.17332e-07
5.17332e-07
5.17335e-07
5.17375e-07
5.11956e-07
5.14807e-07
5.20803e-07
5.18881e-07
5.17375e-07
5.17373e-07
5.17373e-07
5.17374e-07
5.08295e-07
5.15095e-07
5.18412e-07
5.21149e-07
5.18274e-07
5.13474e-07
5.11514e-07
5.11551e-07
5.11949e-07
5.15091e-07
5.14851e-07
5.17575e-07
5.17663e-07
5.17506e-07
5.14807e-07
5.18418e-07
5.15985e-07
5.15518e-07
5.17331e-07
5.16481e-07
5.17012e-07
5.17189e-07
5.16033e-07
5.15305e-07
5.15649e-07
5.1733e-07
5.19303e-07
5.11879e-07
5.11884e-07
5.11883e-07
5.11879e-07
5.1338e-07
5.1277e-07
5.16479e-07
5.11882e-07
5.11867e-07
5.11868e-07
5.11868e-07
5.11867e-07
5.11883e-07
5.0797e-07
5.12078e-07
5.15984e-07
5.17013e-07
5.11884e-07
5.11866e-07
5.11867e-07
5.11867e-07
5.11866e-07
5.11881e-07
5.06008e-07
5.12164e-07
5.15519e-07
5.17187e-07
5.11882e-07
5.11866e-07
5.11866e-07
5.11867e-07
5.11866e-07
5.11881e-07
5.06055e-07
5.1201e-07
5.16034e-07
5.11881e-07
5.11868e-07
5.11867e-07
5.11868e-07
5.11868e-07
5.11881e-07
5.06461e-07
5.09305e-07
5.15303e-07
5.1338e-07
5.1188e-07
5.11882e-07
5.11881e-07
5.1188e-07
5.02789e-07
5.096e-07
5.1291e-07
5.15648e-07
5.12769e-07
5.07972e-07
5.06008e-07
5.06056e-07
5.06457e-07
5.09594e-07
5.09347e-07
5.1207e-07
5.12165e-07
5.1201e-07
5.09303e-07
5.12917e-07
5.10493e-07
5.10027e-07
5.11839e-07
5.1099e-07
5.11524e-07
5.11698e-07
5.10538e-07
5.09811e-07
5.10155e-07
5.11838e-07
5.13814e-07
5.0639e-07
5.06388e-07
5.06388e-07
5.0639e-07
5.07887e-07
5.07278e-07
5.10989e-07
5.06389e-07
5.06385e-07
5.06385e-07
5.06385e-07
5.06387e-07
5.0639e-07
5.02481e-07
5.06587e-07
5.10491e-07
5.11524e-07
5.06389e-07
5.06385e-07
5.06385e-07
5.06384e-07
5.06386e-07
5.06389e-07
5.00516e-07
5.06674e-07
5.10027e-07
5.11698e-07
5.06389e-07
5.06385e-07
5.06385e-07
5.06384e-07
5.06385e-07
5.0639e-07
5.00564e-07
5.06519e-07
5.10539e-07
5.0639e-07
5.06386e-07
5.06385e-07
5.06385e-07
5.06386e-07
5.0639e-07
5.00973e-07
5.03812e-07
5.0981e-07
5.07886e-07
5.06389e-07
5.06389e-07
5.06389e-07
5.0639e-07
4.97294e-07
5.04106e-07
5.07415e-07
5.10153e-07
5.07274e-07
5.02478e-07
5.00512e-07
5.0056e-07
5.00965e-07
5.041e-07
5.03854e-07
5.06578e-07
5.06671e-07
5.06518e-07
5.03809e-07
5.07424e-07
5.05001e-07
5.04535e-07
5.06347e-07
5.05498e-07
5.06033e-07
5.06208e-07
5.05048e-07
5.04319e-07
5.04663e-07
5.06346e-07
5.08326e-07
5.00898e-07
5.00898e-07
5.00899e-07
5.00899e-07
5.02394e-07
5.01784e-07
5.05498e-07
5.009e-07
5.00896e-07
5.00896e-07
5.00896e-07
5.00896e-07
5.00897e-07
4.96988e-07
5.01094e-07
5.05e-07
5.06035e-07
5.00898e-07
5.00895e-07
5.00896e-07
5.00896e-07
5.00897e-07
5.00898e-07
4.95022e-07
5.01182e-07
5.04535e-07
5.06209e-07
5.00899e-07
5.00897e-07
5.00898e-07
5.00897e-07
5.00897e-07
5.00898e-07
4.95072e-07
5.01027e-07
5.05048e-07
5.00897e-07
5.00894e-07
5.00893e-07
5.00895e-07
5.00895e-07
5.00899e-07
4.95482e-07
4.98321e-07
5.04319e-07
5.02393e-07
5.00901e-07
5.009e-07
5.00899e-07
5.009e-07
4.91804e-07
4.98614e-07
5.01924e-07
5.04662e-07
5.01782e-07
4.96987e-07
4.9502e-07
4.95068e-07
4.95474e-07
4.98609e-07
4.98361e-07
5.01087e-07
5.0118e-07
5.01026e-07
4.98319e-07
5.01933e-07
4.9951e-07
4.99043e-07
5.00855e-07
5.00008e-07
5.00544e-07
5.00718e-07
4.99555e-07
4.98827e-07
4.99171e-07
5.00854e-07
5.02835e-07
4.95407e-07
4.95407e-07
4.95407e-07
4.95407e-07
4.96901e-07
4.96292e-07
5.00007e-07
4.95407e-07
4.95405e-07
4.95405e-07
4.95406e-07
4.95405e-07
4.95407e-07
4.91496e-07
4.95602e-07
4.99509e-07
5.00544e-07
4.95407e-07
4.95407e-07
4.95406e-07
4.95407e-07
4.95406e-07
4.95407e-07
4.8953e-07
4.9569e-07
4.99044e-07
5.00718e-07
4.95407e-07
4.95405e-07
4.95405e-07
4.95407e-07
4.95404e-07
4.95407e-07
4.8958e-07
4.95535e-07
4.99556e-07
4.95408e-07
4.95406e-07
4.95406e-07
4.95407e-07
4.95406e-07
4.95408e-07
4.8999e-07
4.92828e-07
4.98827e-07
4.96899e-07
4.95407e-07
4.95407e-07
4.95407e-07
4.95407e-07
4.86313e-07
4.93122e-07
4.96431e-07
4.9917e-07
4.9629e-07
4.91494e-07
4.89524e-07
4.89576e-07
4.89982e-07
4.93116e-07
4.92868e-07
4.95595e-07
4.95688e-07
4.95534e-07
4.92826e-07
4.9644e-07
4.94018e-07
4.93552e-07
4.95366e-07
4.94519e-07
4.95053e-07
4.95226e-07
4.94062e-07
4.93337e-07
4.9368e-07
4.95363e-07
4.97342e-07
4.89915e-07
4.89915e-07
4.89915e-07
4.89915e-07
4.9141e-07
4.90801e-07
4.94515e-07
4.89915e-07
4.89916e-07
4.89915e-07
4.89916e-07
4.89916e-07
4.89915e-07
4.86005e-07
4.90111e-07
4.94017e-07
4.95053e-07
4.89915e-07
4.89915e-07
4.89916e-07
4.89916e-07
4.89915e-07
4.89916e-07
4.84039e-07
4.90199e-07
4.93552e-07
4.95227e-07
4.89915e-07
4.89916e-07
4.89916e-07
4.89916e-07
4.89915e-07
4.89916e-07
4.84091e-07
4.90045e-07
4.94063e-07
4.89915e-07
4.89916e-07
4.89916e-07
4.89916e-07
4.89916e-07
4.89915e-07
4.845e-07
4.87337e-07
4.93335e-07
4.91407e-07
4.89915e-07
4.89916e-07
4.89916e-07
4.89915e-07
4.80822e-07
4.87631e-07
4.9094e-07
4.93678e-07
4.90798e-07
4.86003e-07
4.84033e-07
4.84084e-07
4.84492e-07
4.87626e-07
4.87378e-07
4.90104e-07
4.90196e-07
4.90043e-07
4.87334e-07
4.90949e-07
4.88527e-07
4.88061e-07
4.89872e-07
4.89029e-07
4.89562e-07
4.89736e-07
4.88572e-07
4.87844e-07
4.88187e-07
4.89872e-07
4.91852e-07
4.84425e-07
4.84425e-07
4.84425e-07
4.84425e-07
4.85919e-07
4.85309e-07
4.89025e-07
4.84425e-07
4.84425e-07
4.84425e-07
4.84425e-07
4.84425e-07
4.84425e-07
4.80515e-07
4.8462e-07
4.88527e-07
4.89563e-07
4.84425e-07
4.84425e-07
4.84425e-07
4.84425e-07
4.84425e-07
4.84425e-07
4.7855e-07
4.84709e-07
4.88062e-07
4.89737e-07
4.84425e-07
4.84425e-07
4.84425e-07
4.84425e-07
4.84425e-07
4.84425e-07
4.786e-07
4.84555e-07
4.88573e-07
4.84425e-07
4.84425e-07
4.84425e-07
4.84425e-07
4.84425e-07
4.84425e-07
4.79009e-07
4.81846e-07
4.87845e-07
4.85916e-07
4.84425e-07
4.84425e-07
4.84425e-07
4.84425e-07
4.75331e-07
4.8214e-07
4.85448e-07
4.88188e-07
4.85308e-07
4.80513e-07
4.78544e-07
4.78594e-07
4.79001e-07
4.82135e-07
4.81887e-07
4.84613e-07
4.84706e-07
4.84553e-07
4.81844e-07
4.85458e-07
4.83038e-07
4.82571e-07
4.84385e-07
4.83539e-07
4.84073e-07
4.84246e-07
4.83084e-07
4.82353e-07
4.82697e-07
4.84382e-07
4.86363e-07
4.78935e-07
4.78935e-07
4.78935e-07
4.78935e-07
4.80428e-07
4.79819e-07
4.83535e-07
4.78935e-07
4.78934e-07
4.78934e-07
4.78934e-07
4.78934e-07
4.78935e-07
4.75024e-07
4.7913e-07
4.83036e-07
4.84073e-07
4.78935e-07
4.78934e-07
4.78935e-07
4.78935e-07
4.78934e-07
4.78935e-07
4.73059e-07
4.79218e-07
4.82572e-07
4.84247e-07
4.78935e-07
4.78934e-07
4.78934e-07
4.78934e-07
4.78934e-07
4.78935e-07
4.7311e-07
4.79064e-07
4.83083e-07
4.78935e-07
4.78934e-07
4.78935e-07
4.78935e-07
4.78934e-07
4.78935e-07
4.73519e-07
4.76356e-07
4.82354e-07
4.80426e-07
4.78935e-07
4.78935e-07
4.78935e-07
4.78935e-07
4.69841e-07
4.7665e-07
4.79958e-07
4.82697e-07
4.79817e-07
4.75022e-07
4.73053e-07
4.73102e-07
4.7351e-07
4.76645e-07
4.76397e-07
4.79123e-07
4.79216e-07
4.79062e-07
4.76354e-07
4.79968e-07
4.77546e-07
4.7708e-07
4.78892e-07
4.78048e-07
4.78582e-07
4.78755e-07
4.77593e-07
4.76862e-07
4.77206e-07
4.78891e-07
4.80871e-07
4.73444e-07
4.73444e-07
4.73444e-07
4.73444e-07
4.74937e-07
4.74328e-07
4.78044e-07
4.73444e-07
4.73444e-07
4.73444e-07
4.73444e-07
4.73444e-07
4.73444e-07
4.69534e-07
4.73639e-07
4.77546e-07
4.78582e-07
4.73444e-07
4.73444e-07
4.73444e-07
4.73444e-07
4.73444e-07
4.73444e-07
4.67568e-07
4.73728e-07
4.77081e-07
4.78756e-07
4.73444e-07
4.73444e-07
4.73444e-07
4.73444e-07
4.73444e-07
4.73444e-07
4.67619e-07
4.73574e-07
4.77592e-07
4.73444e-07
4.73444e-07
4.73444e-07
4.73444e-07
4.73444e-07
4.73444e-07
4.68028e-07
4.70865e-07
4.76864e-07
4.74935e-07
4.73444e-07
4.73444e-07
4.73444e-07
4.73444e-07
4.6435e-07
4.71159e-07
4.74467e-07
4.77207e-07
4.74326e-07
4.69532e-07
4.67562e-07
4.67612e-07
4.6802e-07
4.71154e-07
4.70906e-07
4.73632e-07
4.73725e-07
4.73571e-07
4.70863e-07
4.74477e-07
4.72056e-07
4.7159e-07
4.73401e-07
4.72557e-07
4.73091e-07
4.73264e-07
4.72102e-07
4.71372e-07
4.71717e-07
4.734e-07
4.75381e-07
4.67953e-07
4.67953e-07
4.67953e-07
4.67953e-07
4.69446e-07
4.68838e-07
4.72553e-07
4.67953e-07
4.67953e-07
4.67953e-07
4.67953e-07
4.67953e-07
4.67953e-07
4.64043e-07
4.68148e-07
4.72055e-07
4.73091e-07
4.67953e-07
4.67953e-07
4.67953e-07
4.67953e-07
4.67953e-07
4.67953e-07
4.62078e-07
4.68237e-07
4.7159e-07
4.73265e-07
4.67953e-07
4.67953e-07
4.67953e-07
4.67953e-07
4.67953e-07
4.67953e-07
4.62128e-07
4.68083e-07
4.72101e-07
4.67953e-07
4.67953e-07
4.67953e-07
4.67953e-07
4.67953e-07
4.67953e-07
4.62537e-07
4.65374e-07
4.71373e-07
4.69444e-07
4.67953e-07
4.67953e-07
4.67953e-07
4.67953e-07
4.58859e-07
4.65668e-07
4.68976e-07
4.71716e-07
4.68835e-07
4.64041e-07
4.62071e-07
4.62121e-07
4.62529e-07
4.65663e-07
4.65415e-07
4.68141e-07
4.68234e-07
4.6808e-07
4.65372e-07
4.68986e-07
4.66564e-07
4.66099e-07
4.6791e-07
4.67066e-07
4.676e-07
4.67773e-07
4.66611e-07
4.65881e-07
4.66225e-07
4.67909e-07
4.69889e-07
4.62462e-07
4.62462e-07
4.62462e-07
4.62462e-07
4.63955e-07
4.63347e-07
4.67063e-07
4.62462e-07
4.62462e-07
4.62462e-07
4.62462e-07
4.62462e-07
4.62462e-07
4.58552e-07
4.62658e-07
4.66564e-07
4.676e-07
4.62462e-07
4.62462e-07
4.62462e-07
4.62462e-07
4.62462e-07
4.62462e-07
4.56587e-07
4.62746e-07
4.66099e-07
4.67774e-07
4.62462e-07
4.62462e-07
4.62462e-07
4.62462e-07
4.62462e-07
4.62462e-07
4.56638e-07
4.62592e-07
4.6661e-07
4.62462e-07
4.62462e-07
4.62462e-07
4.62462e-07
4.62462e-07
4.62462e-07
4.57046e-07
4.59884e-07
4.65882e-07
4.63953e-07
4.62462e-07
4.62462e-07
4.62462e-07
4.62462e-07
4.53368e-07
4.60177e-07
4.63486e-07
4.66225e-07
4.63344e-07
4.58549e-07
4.56579e-07
4.56629e-07
4.57037e-07
4.60172e-07
4.59924e-07
4.6265e-07
4.62743e-07
4.6259e-07
4.59881e-07
4.63495e-07
4.61074e-07
4.60608e-07
4.62419e-07
4.61576e-07
4.62109e-07
4.62282e-07
4.6112e-07
4.60392e-07
4.60734e-07
4.62419e-07
4.64398e-07
4.56971e-07
4.56972e-07
4.56972e-07
4.56971e-07
4.58465e-07
4.57856e-07
4.61572e-07
4.56971e-07
4.56971e-07
4.56971e-07
4.56971e-07
4.56971e-07
4.56971e-07
4.53061e-07
4.57167e-07
4.61073e-07
4.62109e-07
4.56971e-07
4.56971e-07
4.56971e-07
4.56971e-07
4.56971e-07
4.56971e-07
4.51096e-07
4.57255e-07
4.60608e-07
4.62283e-07
4.56971e-07
4.56971e-07
4.56971e-07
4.56971e-07
4.56971e-07
4.56971e-07
4.51147e-07
4.57101e-07
4.61119e-07
4.56971e-07
4.56971e-07
4.56971e-07
4.56971e-07
4.56971e-07
4.56971e-07
4.51556e-07
4.54393e-07
4.60391e-07
4.58463e-07
4.56971e-07
4.56971e-07
4.56971e-07
4.56971e-07
4.47878e-07
4.54687e-07
4.57995e-07
4.60734e-07
4.57854e-07
4.53059e-07
4.51089e-07
4.5114e-07
4.51548e-07
4.54681e-07
4.54433e-07
4.57159e-07
4.57253e-07
4.57099e-07
4.5439e-07
4.58004e-07
4.55583e-07
4.55117e-07
4.56928e-07
4.56084e-07
4.56618e-07
4.56791e-07
4.55629e-07
4.54901e-07
4.55243e-07
4.56928e-07
4.58907e-07
4.5148e-07
4.5148e-07
4.5148e-07
4.5148e-07
4.52973e-07
4.52365e-07
4.56081e-07
4.5148e-07
4.5148e-07
4.5148e-07
4.5148e-07
4.5148e-07
4.5148e-07
4.47569e-07
4.51676e-07
4.55582e-07
4.56618e-07
4.5148e-07
4.5148e-07
4.5148e-07
4.5148e-07
4.5148e-07
4.5148e-07
4.45605e-07
4.51764e-07
4.55117e-07
4.56792e-07
4.5148e-07
4.5148e-07
4.5148e-07
4.5148e-07
4.5148e-07
4.5148e-07
4.45656e-07
4.5161e-07
4.55628e-07
4.5148e-07
4.5148e-07
4.5148e-07
4.5148e-07
4.5148e-07
4.5148e-07
4.46065e-07
4.48902e-07
4.549e-07
4.52972e-07
4.5148e-07
4.5148e-07
4.5148e-07
4.5148e-07
4.42387e-07
4.49196e-07
4.52504e-07
4.55243e-07
4.52363e-07
4.47568e-07
4.45599e-07
4.4565e-07
4.46057e-07
4.49191e-07
4.48942e-07
4.51668e-07
4.51762e-07
4.51608e-07
4.48899e-07
4.52513e-07
4.50092e-07
4.49626e-07
4.51437e-07
4.50594e-07
4.51127e-07
4.513e-07
4.50138e-07
4.4941e-07
4.49751e-07
4.51437e-07
4.53416e-07
4.45989e-07
4.45989e-07
4.45989e-07
4.45989e-07
4.47482e-07
4.46874e-07
4.5059e-07
4.45989e-07
4.45989e-07
4.45989e-07
4.45989e-07
4.45989e-07
4.45989e-07
4.42078e-07
4.46185e-07
4.50091e-07
4.51127e-07
4.45989e-07
4.45989e-07
4.45989e-07
4.45989e-07
4.45989e-07
4.45989e-07
4.40114e-07
4.46273e-07
4.49626e-07
4.51301e-07
4.45989e-07
4.45989e-07
4.45989e-07
4.45989e-07
4.45989e-07
4.45989e-07
4.40165e-07
4.46119e-07
4.50137e-07
4.45989e-07
4.45989e-07
4.45989e-07
4.45989e-07
4.45989e-07
4.45989e-07
4.40574e-07
4.43411e-07
4.49409e-07
4.47481e-07
4.45989e-07
4.45989e-07
4.45989e-07
4.45989e-07
4.36895e-07
4.43705e-07
4.47013e-07
4.49752e-07
4.46872e-07
4.42077e-07
4.40107e-07
4.40157e-07
4.40565e-07
4.43699e-07
4.43451e-07
4.46177e-07
4.4627e-07
4.46115e-07
4.43407e-07
4.47022e-07
4.44601e-07
4.44135e-07
4.45947e-07
4.45103e-07
4.45637e-07
4.4581e-07
4.44648e-07
4.43919e-07
4.44261e-07
4.45946e-07
4.47926e-07
4.40499e-07
4.40499e-07
4.40499e-07
4.40499e-07
4.41992e-07
4.41383e-07
4.45099e-07
4.40499e-07
4.40499e-07
4.40499e-07
4.40499e-07
4.40499e-07
4.40499e-07
4.36587e-07
4.40694e-07
4.446e-07
4.45637e-07
4.40499e-07
4.40499e-07
4.40499e-07
4.40499e-07
4.40499e-07
4.40499e-07
4.34623e-07
4.40782e-07
4.44136e-07
4.45811e-07
4.40499e-07
4.40499e-07
4.40499e-07
4.40499e-07
4.40499e-07
4.40499e-07
4.34674e-07
4.40628e-07
4.44647e-07
4.40499e-07
4.40499e-07
4.40499e-07
4.40499e-07
4.40499e-07
4.40499e-07
4.35083e-07
4.3792e-07
4.43919e-07
4.4199e-07
4.40499e-07
4.40499e-07
4.40499e-07
4.40499e-07
4.31405e-07
4.38214e-07
4.41522e-07
4.44262e-07
4.41381e-07
4.36587e-07
4.34619e-07
4.34669e-07
4.35075e-07
4.38209e-07
4.37961e-07
4.40687e-07
4.4078e-07
4.40626e-07
4.37916e-07
4.41532e-07
4.39111e-07
4.38645e-07
4.40456e-07
4.39612e-07
4.40146e-07
4.40319e-07
4.39157e-07
4.38428e-07
4.38771e-07
4.40455e-07
4.42435e-07
4.35008e-07
4.35008e-07
4.35008e-07
4.35008e-07
4.36502e-07
4.35893e-07
4.39608e-07
4.35008e-07
4.35008e-07
4.35008e-07
4.35008e-07
4.35008e-07
4.35008e-07
4.31097e-07
4.35203e-07
4.3911e-07
4.40146e-07
4.35008e-07
4.35008e-07
4.35008e-07
4.35008e-07
4.35008e-07
4.35008e-07
4.29133e-07
4.35292e-07
4.38645e-07
4.4032e-07
4.35008e-07
4.35008e-07
4.35008e-07
4.35008e-07
4.35008e-07
4.35008e-07
4.29183e-07
4.35138e-07
4.39156e-07
4.35008e-07
4.35008e-07
4.35008e-07
4.35008e-07
4.35008e-07
4.35008e-07
4.29592e-07
4.32429e-07
4.38428e-07
4.36499e-07
4.35008e-07
4.35008e-07
4.35008e-07
4.35008e-07
4.25914e-07
4.32723e-07
4.36031e-07
4.38771e-07
4.3589e-07
4.31096e-07
4.29128e-07
4.29178e-07
4.29584e-07
4.32718e-07
4.3247e-07
4.35196e-07
4.35289e-07
4.35136e-07
4.32426e-07
4.36041e-07
4.3362e-07
4.33154e-07
4.34965e-07
4.34121e-07
4.34656e-07
4.34829e-07
4.33666e-07
4.32937e-07
4.3328e-07
4.34965e-07
4.36945e-07
4.29517e-07
4.29517e-07
4.29517e-07
4.29517e-07
4.31011e-07
4.30402e-07
4.34118e-07
4.29517e-07
4.29517e-07
4.29517e-07
4.29517e-07
4.29517e-07
4.29517e-07
4.25606e-07
4.29713e-07
4.33619e-07
4.34656e-07
4.29517e-07
4.29517e-07
4.29517e-07
4.29517e-07
4.29517e-07
4.29517e-07
4.23642e-07
4.29801e-07
4.33154e-07
4.34829e-07
4.29517e-07
4.29517e-07
4.29517e-07
4.29517e-07
4.29517e-07
4.29517e-07
4.23693e-07
4.29647e-07
4.33665e-07
4.29517e-07
4.29517e-07
4.29517e-07
4.29517e-07
4.29517e-07
4.29517e-07
4.24102e-07
4.26939e-07
4.32937e-07
4.31009e-07
4.29517e-07
4.29517e-07
4.29517e-07
4.29517e-07
4.20424e-07
4.27233e-07
4.30541e-07
4.3328e-07
4.304e-07
4.25605e-07
4.23637e-07
4.23687e-07
4.24093e-07
4.27227e-07
4.26979e-07
4.29705e-07
4.29799e-07
4.29645e-07
4.26935e-07
4.3055e-07
4.28129e-07
4.27663e-07
4.29474e-07
4.2863e-07
4.29165e-07
4.29338e-07
4.28175e-07
4.27446e-07
4.27789e-07
4.29474e-07
4.31453e-07
4.24026e-07
4.24026e-07
4.24026e-07
4.24026e-07
4.25521e-07
4.24911e-07
4.28627e-07
4.24026e-07
4.24026e-07
4.24026e-07
4.24026e-07
4.24026e-07
4.24026e-07
4.20115e-07
4.24222e-07
4.28128e-07
4.29164e-07
4.24026e-07
4.24026e-07
4.24026e-07
4.24026e-07
4.24026e-07
4.24026e-07
4.18151e-07
4.2431e-07
4.27663e-07
4.29338e-07
4.24026e-07
4.24026e-07
4.24026e-07
4.24026e-07
4.24026e-07
4.24026e-07
4.18202e-07
4.24156e-07
4.28174e-07
4.24026e-07
4.24026e-07
4.24026e-07
4.24026e-07
4.24026e-07
4.24026e-07
4.18611e-07
4.21448e-07
4.27446e-07
4.25518e-07
4.24026e-07
4.24026e-07
4.24027e-07
4.24026e-07
4.14933e-07
4.21742e-07
4.2505e-07
4.27789e-07
4.24909e-07
4.20115e-07
4.18146e-07
4.18197e-07
4.18602e-07
4.21737e-07
4.21488e-07
4.24215e-07
4.24308e-07
4.24154e-07
4.21444e-07
4.25059e-07
4.22638e-07
4.22172e-07
4.23983e-07
4.23139e-07
4.23673e-07
4.23847e-07
4.22684e-07
4.21954e-07
4.22298e-07
4.23983e-07
4.25962e-07
4.18535e-07
4.18535e-07
4.18535e-07
4.18535e-07
4.2003e-07
4.1942e-07
4.23136e-07
4.18535e-07
4.18535e-07
4.18535e-07
4.18535e-07
4.18535e-07
4.18535e-07
4.14624e-07
4.18732e-07
4.22637e-07
4.23673e-07
4.18535e-07
4.18535e-07
4.18535e-07
4.18535e-07
4.18535e-07
4.18535e-07
4.1266e-07
4.18819e-07
4.22172e-07
4.23847e-07
4.18535e-07
4.18535e-07
4.18535e-07
4.18535e-07
4.18535e-07
4.18535e-07
4.12711e-07
4.18665e-07
4.22683e-07
4.18535e-07
4.18536e-07
4.18535e-07
4.18535e-07
4.18536e-07
4.18535e-07
4.1312e-07
4.15957e-07
4.21955e-07
4.20027e-07
4.18535e-07
4.18535e-07
4.18535e-07
4.18535e-07
4.09442e-07
4.16251e-07
4.19559e-07
4.22298e-07
4.19418e-07
4.14624e-07
4.12655e-07
4.12705e-07
4.13111e-07
4.16246e-07
4.15997e-07
4.18723e-07
4.18817e-07
4.18663e-07
4.15953e-07
4.19568e-07
4.17147e-07
4.16681e-07
4.18492e-07
4.17648e-07
4.18183e-07
4.18356e-07
4.17193e-07
4.16464e-07
4.16807e-07
4.18492e-07
4.20472e-07
4.13045e-07
4.13045e-07
4.13045e-07
4.13045e-07
4.14539e-07
4.1393e-07
4.17645e-07
4.13045e-07
4.13045e-07
4.13045e-07
4.13045e-07
4.13045e-07
4.13045e-07
4.09134e-07
4.13241e-07
4.17147e-07
4.18183e-07
4.13045e-07
4.13045e-07
4.13045e-07
4.13045e-07
4.13045e-07
4.13045e-07
4.0717e-07
4.13328e-07
4.16682e-07
4.18357e-07
4.13045e-07
4.13045e-07
4.13045e-07
4.13045e-07
4.13045e-07
4.13045e-07
4.0722e-07
4.13175e-07
4.17193e-07
4.13045e-07
4.13045e-07
4.13045e-07
4.13045e-07
4.13045e-07
4.13045e-07
4.07629e-07
4.10466e-07
4.16465e-07
4.14536e-07
4.13045e-07
4.13045e-07
4.13045e-07
4.13045e-07
4.03951e-07
4.1076e-07
4.14068e-07
4.16807e-07
4.13927e-07
4.09133e-07
4.07165e-07
4.07215e-07
4.07621e-07
4.10755e-07
4.10507e-07
4.13233e-07
4.13326e-07
4.13172e-07
4.10462e-07
4.14077e-07
4.11657e-07
4.11191e-07
4.13001e-07
4.12158e-07
4.12692e-07
4.12865e-07
4.11703e-07
4.10973e-07
4.11316e-07
4.13001e-07
4.14981e-07
4.07554e-07
4.07554e-07
4.07554e-07
4.07554e-07
4.09049e-07
4.08439e-07
4.12154e-07
4.07554e-07
4.07554e-07
4.07554e-07
4.07554e-07
4.07554e-07
4.07554e-07
4.03643e-07
4.07751e-07
4.11656e-07
4.12692e-07
4.07554e-07
4.07554e-07
4.07554e-07
4.07554e-07
4.07554e-07
4.07554e-07
4.01679e-07
4.07838e-07
4.11191e-07
4.12866e-07
4.07554e-07
4.07554e-07
4.07554e-07
4.07554e-07
4.07554e-07
4.07554e-07
4.01729e-07
4.07684e-07
4.11702e-07
4.07554e-07
4.07554e-07
4.07554e-07
4.07554e-07
4.07554e-07
4.07554e-07
4.02138e-07
4.04975e-07
4.10974e-07
4.09045e-07
4.07554e-07
4.07554e-07
4.07554e-07
4.07554e-07
3.9846e-07
4.05269e-07
4.08577e-07
4.11317e-07
4.08437e-07
4.03642e-07
4.01674e-07
4.01724e-07
4.0213e-07
4.05264e-07
4.05016e-07
4.07742e-07
4.07835e-07
4.07681e-07
4.04972e-07
4.08586e-07
4.06166e-07
4.057e-07
4.07512e-07
4.06667e-07
4.07201e-07
4.07374e-07
4.06212e-07
4.05482e-07
4.05826e-07
4.07511e-07
4.0949e-07
4.02063e-07
4.02063e-07
4.02063e-07
4.02063e-07
4.03558e-07
4.02948e-07
4.06664e-07
4.02063e-07
4.02063e-07
4.02063e-07
4.02063e-07
4.02063e-07
4.02063e-07
3.98152e-07
4.0226e-07
4.06165e-07
4.07201e-07
4.02064e-07
4.02063e-07
4.02063e-07
4.02063e-07
4.02063e-07
4.02063e-07
3.96188e-07
4.02347e-07
4.057e-07
4.07375e-07
4.02064e-07
4.02063e-07
4.02063e-07
4.02063e-07
4.02063e-07
4.02063e-07
3.96239e-07
4.02193e-07
4.06211e-07
4.02063e-07
4.02064e-07
4.02064e-07
4.02064e-07
4.02063e-07
4.02063e-07
3.96648e-07
3.99485e-07
4.05483e-07
4.03555e-07
4.02063e-07
4.02063e-07
4.02062e-07
4.02063e-07
3.92969e-07
3.99779e-07
4.03087e-07
4.05826e-07
4.02946e-07
3.98151e-07
3.96183e-07
3.96233e-07
3.96639e-07
3.99773e-07
3.99525e-07
4.02251e-07
4.02345e-07
4.0219e-07
3.99481e-07
4.03095e-07
4.00675e-07
4.00209e-07
4.02021e-07
4.01176e-07
4.01711e-07
4.01884e-07
4.00721e-07
3.99991e-07
4.00336e-07
4.0202e-07
4.04e-07
3.96573e-07
3.96573e-07
3.96573e-07
3.96573e-07
3.98067e-07
3.97457e-07
4.01173e-07
3.96573e-07
3.96573e-07
3.96573e-07
3.96573e-07
3.96573e-07
3.96573e-07
3.92661e-07
3.96769e-07
4.00675e-07
4.01711e-07
3.96573e-07
3.96573e-07
3.96573e-07
3.96573e-07
3.96573e-07
3.96573e-07
3.90697e-07
3.96856e-07
4.0021e-07
4.01884e-07
3.96573e-07
3.96573e-07
3.96573e-07
3.96573e-07
3.96573e-07
3.96573e-07
3.90748e-07
3.96702e-07
4.00721e-07
3.96573e-07
3.96573e-07
3.96573e-07
3.96573e-07
3.96573e-07
3.96573e-07
3.91157e-07
3.93994e-07
3.99993e-07
3.98064e-07
3.96573e-07
3.96573e-07
3.96573e-07
3.96573e-07
3.87479e-07
3.94288e-07
3.97596e-07
4.00335e-07
3.97455e-07
3.92659e-07
3.90692e-07
3.90741e-07
3.91148e-07
3.94283e-07
3.94035e-07
3.96761e-07
3.96854e-07
3.967e-07
3.9399e-07
3.97605e-07
3.95185e-07
3.94719e-07
3.96531e-07
3.95685e-07
3.9622e-07
3.96393e-07
3.9523e-07
3.94499e-07
3.94846e-07
3.9653e-07
3.9851e-07
3.91082e-07
3.91082e-07
3.91082e-07
3.91082e-07
3.92574e-07
3.91967e-07
3.95683e-07
3.91082e-07
3.91082e-07
3.91082e-07
3.91082e-07
3.91082e-07
3.91082e-07
3.87171e-07
3.91279e-07
3.95184e-07
3.9622e-07
3.91082e-07
3.91082e-07
3.91082e-07
3.91082e-07
3.91082e-07
3.91082e-07
3.85207e-07
3.91366e-07
3.94719e-07
3.96394e-07
3.91082e-07
3.91082e-07
3.91082e-07
3.91082e-07
3.91082e-07
3.91082e-07
3.85258e-07
3.91212e-07
3.9523e-07
3.91082e-07
3.91082e-07
3.91082e-07
3.91082e-07
3.91082e-07
3.91082e-07
3.85667e-07
3.88504e-07
3.94502e-07
3.92574e-07
3.91082e-07
3.91082e-07
3.91082e-07
3.91082e-07
3.81989e-07
3.88798e-07
3.92106e-07
3.94845e-07
3.91965e-07
3.87169e-07
3.85201e-07
3.85251e-07
3.85658e-07
3.88792e-07
3.88544e-07
3.9127e-07
3.91364e-07
3.91209e-07
3.885e-07
3.92114e-07
3.89694e-07
3.89229e-07
3.91039e-07
3.90195e-07
3.9073e-07
3.90903e-07
3.8974e-07
3.8901e-07
3.89354e-07
3.91039e-07
3.93019e-07
3.85592e-07
3.85592e-07
3.85592e-07
3.85592e-07
3.87084e-07
3.86476e-07
3.90192e-07
3.85592e-07
3.85592e-07
3.85592e-07
3.85592e-07
3.85592e-07
3.85592e-07
3.8168e-07
3.85788e-07
3.89693e-07
3.9073e-07
3.85592e-07
3.85592e-07
3.85592e-07
3.85592e-07
3.85592e-07
3.85592e-07
3.79716e-07
3.85875e-07
3.89229e-07
3.90903e-07
3.85592e-07
3.85592e-07
3.85592e-07
3.85592e-07
3.85592e-07
3.85592e-07
3.79767e-07
3.85721e-07
3.8974e-07
3.85592e-07
3.85592e-07
3.85592e-07
3.85592e-07
3.85592e-07
3.85592e-07
3.80176e-07
3.83013e-07
3.89011e-07
3.87083e-07
3.85592e-07
3.85592e-07
3.85592e-07
3.85592e-07
3.76498e-07
3.83307e-07
3.86615e-07
3.89354e-07
3.86474e-07
3.81679e-07
3.79712e-07
3.79761e-07
3.80167e-07
3.83302e-07
3.83054e-07
3.8578e-07
3.85873e-07
3.8572e-07
3.83009e-07
3.86624e-07
3.84204e-07
3.83738e-07
3.85549e-07
3.84705e-07
3.85238e-07
3.85412e-07
3.84249e-07
3.83519e-07
3.83864e-07
3.85549e-07
3.87528e-07
3.80101e-07
3.80101e-07
3.80101e-07
3.80101e-07
3.81593e-07
3.80986e-07
3.84701e-07
3.80101e-07
3.80101e-07
3.80101e-07
3.80101e-07
3.80101e-07
3.80101e-07
3.7619e-07
3.80298e-07
3.84203e-07
3.85239e-07
3.80101e-07
3.80101e-07
3.80101e-07
3.80101e-07
3.80101e-07
3.80101e-07
3.74226e-07
3.80385e-07
3.83738e-07
3.85412e-07
3.80101e-07
3.80101e-07
3.80101e-07
3.80101e-07
3.80101e-07
3.80101e-07
3.74276e-07
3.80231e-07
3.84249e-07
3.80101e-07
3.80101e-07
3.80101e-07
3.80101e-07
3.80101e-07
3.80101e-07
3.74685e-07
3.77523e-07
3.83521e-07
3.81592e-07
3.80101e-07
3.80101e-07
3.80101e-07
3.80101e-07
3.71007e-07
3.77816e-07
3.81124e-07
3.83864e-07
3.80983e-07
3.76188e-07
3.74221e-07
3.7427e-07
3.74676e-07
3.77811e-07
3.77563e-07
3.80289e-07
3.80383e-07
3.80229e-07
3.77519e-07
3.81133e-07
3.78713e-07
3.78247e-07
3.80057e-07
3.79213e-07
3.79747e-07
3.7992e-07
3.78758e-07
3.78028e-07
3.78373e-07
3.80057e-07
3.82036e-07
3.7461e-07
3.7461e-07
3.7461e-07
3.7461e-07
3.76102e-07
3.75495e-07
3.7921e-07
3.7461e-07
3.7461e-07
3.7461e-07
3.7461e-07
3.7461e-07
3.7461e-07
3.70699e-07
3.74806e-07
3.78712e-07
3.79748e-07
3.7461e-07
3.7461e-07
3.7461e-07
3.7461e-07
3.7461e-07
3.7461e-07
3.68735e-07
3.74894e-07
3.78247e-07
3.79921e-07
3.7461e-07
3.7461e-07
3.7461e-07
3.7461e-07
3.7461e-07
3.7461e-07
3.68785e-07
3.7474e-07
3.78758e-07
3.7461e-07
3.7461e-07
3.7461e-07
3.7461e-07
3.7461e-07
3.7461e-07
3.69194e-07
3.72031e-07
3.7803e-07
3.76101e-07
3.7461e-07
3.7461e-07
3.7461e-07
3.7461e-07
3.65516e-07
3.72325e-07
3.75633e-07