/*--------------------------------*- C++ -*----------------------------------*\
| =========                 |                                                 |
| \\      /  F ield         | OpenFOAM: The Open Source CFD Toolbox           |
|  \\    /   O peration     | Version:  v2012                                 |
|   \\  /    A nd           | Website:  www.openfoam.com                      |
|    \\/     M anipulation  |                                                 |
\*---------------------------------------------------------------------------*/
FoamFile
{
    version     2.0;
    format      ascii;
    class       volScalarField;
    location    "7950.5";
    object      p;
}
// * * * * * * * * * * * * * * * * * * * * * * * * * * * * * * * * * * * * * //

dimensions      [0 2 -2 0 0 0 0];


internalField   nonuniform List<scalar> 
189320
(
1.41649e-07
1.41665e-07
1.41461e-07
1.41473e-07
1.41692e-07
1.41809e-07
1.41701e-07
1.41895e-07
1.41732e-07
1.41461e-07
1.41886e-07
1.41937e-07
1.42006e-07
1.42026e-07
1.41986e-07
1.41881e-07
1.41376e-07
1.41473e-07
1.41937e-07
1.42068e-07
1.42113e-07
1.42121e-07
1.42098e-07
1.42021e-07
1.4185e-07
1.42062e-07
1.4165e-07
1.41692e-07
1.42006e-07
1.42113e-07
1.42147e-07
1.42152e-07
1.42136e-07
1.42081e-07
1.41953e-07
1.42059e-07
1.41665e-07
1.41809e-07
1.42026e-07
1.42121e-07
1.42151e-07
1.42156e-07
1.42141e-07
1.42088e-07
1.41947e-07
1.41532e-07
1.41701e-07
1.41986e-07
1.42098e-07
1.42136e-07
1.42142e-07
1.42123e-07
1.42059e-07
1.41926e-07
1.42201e-07
1.41895e-07
1.41881e-07
1.42021e-07
1.42081e-07
1.42088e-07
1.42059e-07
1.41947e-07
1.41705e-07
1.42095e-07
1.41732e-07
1.41376e-07
1.4185e-07
1.41953e-07
1.41947e-07
1.41926e-07
1.41706e-07
1.42343e-07
1.42062e-07
1.42058e-07
1.41532e-07
1.42202e-07
1.42095e-07
1.39136e-07
1.39138e-07
1.3909e-07
1.38941e-07
1.38973e-07
1.38998e-07
1.3899e-07
1.39184e-07
1.39151e-07
1.3909e-07
1.38942e-07
1.38819e-07
1.38875e-07
1.38875e-07
1.38819e-07
1.39055e-07
1.3905e-07
1.38941e-07
1.38819e-07
1.38968e-07
1.38981e-07
1.38981e-07
1.38968e-07
1.38819e-07
1.39262e-07
1.39204e-07
1.39136e-07
1.38973e-07
1.38875e-07
1.38981e-07
1.39002e-07
1.39002e-07
1.38981e-07
1.38875e-07
1.39324e-07
1.39228e-07
1.39138e-07
1.38998e-07
1.38875e-07
1.38981e-07
1.39002e-07
1.39002e-07
1.38981e-07
1.38875e-07
1.3933e-07
1.391e-07
1.3899e-07
1.38819e-07
1.38968e-07
1.38981e-07
1.38981e-07
1.38968e-07
1.38819e-07
1.39306e-07
1.39294e-07
1.39184e-07
1.39055e-07
1.38819e-07
1.38875e-07
1.38875e-07
1.38819e-07
1.3937e-07
1.39198e-07
1.39207e-07
1.39151e-07
1.3905e-07
1.39262e-07
1.39324e-07
1.3933e-07
1.39306e-07
1.39198e-07
1.39351e-07
1.39204e-07
1.39228e-07
1.391e-07
1.39294e-07
1.39207e-07
1.37465e-07
1.37463e-07
1.3743e-07
1.37294e-07
1.37309e-07
1.37328e-07
1.37332e-07
1.37487e-07
1.37469e-07
1.3743e-07
1.37296e-07
1.37136e-07
1.37157e-07
1.37157e-07
1.37137e-07
1.37347e-07
1.3736e-07
1.37294e-07
1.37137e-07
1.37192e-07
1.37201e-07
1.37201e-07
1.37192e-07
1.37136e-07
1.37478e-07
1.37513e-07
1.37465e-07
1.37309e-07
1.37157e-07
1.37201e-07
1.37216e-07
1.37216e-07
1.37201e-07
1.37157e-07
1.37505e-07
1.37517e-07
1.37463e-07
1.37328e-07
1.37157e-07
1.37201e-07
1.37216e-07
1.37216e-07
1.37201e-07
1.37157e-07
1.37501e-07
1.37403e-07
1.37332e-07
1.37137e-07
1.37192e-07
1.37201e-07
1.37201e-07
1.37192e-07
1.37136e-07
1.37499e-07
1.37549e-07
1.37487e-07
1.37347e-07
1.37136e-07
1.37157e-07
1.37157e-07
1.37137e-07
1.3751e-07
1.3745e-07
1.37512e-07
1.37469e-07
1.3736e-07
1.37478e-07
1.37505e-07
1.37501e-07
1.37499e-07
1.37451e-07
1.37598e-07
1.37513e-07
1.37517e-07
1.37403e-07
1.37549e-07
1.37512e-07
1.35945e-07
1.35939e-07
1.35912e-07
1.35774e-07
1.35783e-07
1.358e-07
1.35807e-07
1.35963e-07
1.3595e-07
1.35912e-07
1.35779e-07
1.35625e-07
1.35632e-07
1.35632e-07
1.35625e-07
1.35827e-07
1.35841e-07
1.35774e-07
1.35625e-07
1.35642e-07
1.35648e-07
1.35648e-07
1.35642e-07
1.35625e-07
1.35948e-07
1.35995e-07
1.35945e-07
1.35783e-07
1.35632e-07
1.35648e-07
1.35656e-07
1.35656e-07
1.35648e-07
1.35632e-07
1.35966e-07
1.35995e-07
1.35939e-07
1.358e-07
1.35632e-07
1.35648e-07
1.35656e-07
1.35656e-07
1.35648e-07
1.35632e-07
1.35956e-07
1.35876e-07
1.35807e-07
1.35625e-07
1.35642e-07
1.35648e-07
1.35648e-07
1.35642e-07
1.35625e-07
1.35956e-07
1.36023e-07
1.35963e-07
1.35827e-07
1.35625e-07
1.35632e-07
1.35632e-07
1.35625e-07
1.35965e-07
1.35916e-07
1.35991e-07
1.3595e-07
1.35841e-07
1.35948e-07
1.35966e-07
1.35956e-07
1.35956e-07
1.35917e-07
1.3607e-07
1.35995e-07
1.35995e-07
1.35876e-07
1.36023e-07
1.35991e-07
1.34455e-07
1.34449e-07
1.34423e-07
1.34284e-07
1.34291e-07
1.34308e-07
1.34316e-07
1.34472e-07
1.34462e-07
1.34423e-07
1.34289e-07
1.34132e-07
1.34134e-07
1.34134e-07
1.34132e-07
1.34336e-07
1.34352e-07
1.34284e-07
1.34132e-07
1.3414e-07
1.34142e-07
1.34142e-07
1.3414e-07
1.34132e-07
1.34456e-07
1.34508e-07
1.34455e-07
1.34291e-07
1.34134e-07
1.34142e-07
1.34145e-07
1.34145e-07
1.34142e-07
1.34134e-07
1.34472e-07
1.34506e-07
1.34449e-07
1.34308e-07
1.34134e-07
1.34142e-07
1.34145e-07
1.34145e-07
1.34142e-07
1.34134e-07
1.3446e-07
1.34386e-07
1.34316e-07
1.34132e-07
1.3414e-07
1.34142e-07
1.34142e-07
1.3414e-07
1.34132e-07
1.34461e-07
1.34533e-07
1.34472e-07
1.34336e-07
1.34132e-07
1.34134e-07
1.34134e-07
1.34132e-07
1.34468e-07
1.34424e-07
1.34502e-07
1.34462e-07
1.34352e-07
1.34456e-07
1.34472e-07
1.3446e-07
1.34461e-07
1.34424e-07
1.34579e-07
1.34508e-07
1.34506e-07
1.34386e-07
1.34533e-07
1.34502e-07
1.3297e-07
1.32964e-07
1.32938e-07
1.32798e-07
1.32804e-07
1.32821e-07
1.32829e-07
1.32987e-07
1.32977e-07
1.32938e-07
1.32803e-07
1.32643e-07
1.32645e-07
1.32645e-07
1.32643e-07
1.32849e-07
1.32867e-07
1.32798e-07
1.32643e-07
1.32649e-07
1.32649e-07
1.32649e-07
1.32648e-07
1.32643e-07
1.32971e-07
1.33023e-07
1.3297e-07
1.32804e-07
1.32645e-07
1.32649e-07
1.3265e-07
1.3265e-07
1.32649e-07
1.32645e-07
1.32985e-07
1.33021e-07
1.32964e-07
1.32821e-07
1.32645e-07
1.32649e-07
1.3265e-07
1.3265e-07
1.32649e-07
1.32645e-07
1.32973e-07
1.329e-07
1.32829e-07
1.32643e-07
1.32649e-07
1.32649e-07
1.32649e-07
1.32649e-07
1.32643e-07
1.32974e-07
1.33048e-07
1.32987e-07
1.32849e-07
1.32643e-07
1.32645e-07
1.32645e-07
1.32643e-07
1.32981e-07
1.32939e-07
1.33017e-07
1.32977e-07
1.32867e-07
1.32971e-07
1.32985e-07
1.32973e-07
1.32974e-07
1.32939e-07
1.33094e-07
1.33023e-07
1.33021e-07
1.329e-07
1.33048e-07
1.33017e-07
1.31484e-07
1.31478e-07
1.31452e-07
1.31311e-07
1.31317e-07
1.31334e-07
1.31343e-07
1.31501e-07
1.31491e-07
1.31452e-07
1.31316e-07
1.31156e-07
1.31157e-07
1.31157e-07
1.31156e-07
1.31363e-07
1.31381e-07
1.31311e-07
1.31156e-07
1.3116e-07
1.31159e-07
1.31159e-07
1.3116e-07
1.31156e-07
1.31485e-07
1.31537e-07
1.31485e-07
1.31317e-07
1.31157e-07
1.31159e-07
1.3116e-07
1.31159e-07
1.31159e-07
1.31157e-07
1.31499e-07
1.31536e-07
1.31478e-07
1.31334e-07
1.31157e-07
1.31159e-07
1.3116e-07
1.31159e-07
1.31159e-07
1.31157e-07
1.31487e-07
1.31414e-07
1.31343e-07
1.31156e-07
1.3116e-07
1.31159e-07
1.31159e-07
1.3116e-07
1.31156e-07
1.31488e-07
1.31562e-07
1.31501e-07
1.31363e-07
1.31156e-07
1.31157e-07
1.31157e-07
1.31156e-07
1.31495e-07
1.31453e-07
1.31531e-07
1.31491e-07
1.31381e-07
1.31485e-07
1.31499e-07
1.31487e-07
1.31488e-07
1.31453e-07
1.31608e-07
1.31537e-07
1.31536e-07
1.31414e-07
1.31563e-07
1.31531e-07
1.29998e-07
1.29992e-07
1.29966e-07
1.29825e-07
1.29831e-07
1.29848e-07
1.29856e-07
1.30015e-07
1.30005e-07
1.29966e-07
1.29829e-07
1.29669e-07
1.2967e-07
1.2967e-07
1.29669e-07
1.29877e-07
1.29894e-07
1.29825e-07
1.29669e-07
1.29673e-07
1.29671e-07
1.29671e-07
1.29673e-07
1.29669e-07
1.29998e-07
1.30051e-07
1.29998e-07
1.29831e-07
1.2967e-07
1.29671e-07
1.29671e-07
1.29671e-07
1.29671e-07
1.2967e-07
1.30012e-07
1.30049e-07
1.29992e-07
1.29848e-07
1.2967e-07
1.29671e-07
1.29671e-07
1.29671e-07
1.29671e-07
1.2967e-07
1.3e-07
1.29928e-07
1.29856e-07
1.29669e-07
1.29673e-07
1.29671e-07
1.29671e-07
1.29673e-07
1.29669e-07
1.30002e-07
1.30076e-07
1.30015e-07
1.29877e-07
1.29669e-07
1.2967e-07
1.2967e-07
1.29669e-07
1.30008e-07
1.29966e-07
1.30045e-07
1.30005e-07
1.29894e-07
1.29998e-07
1.30012e-07
1.3e-07
1.30002e-07
1.29966e-07
1.30122e-07
1.30051e-07
1.30049e-07
1.29928e-07
1.30076e-07
1.30045e-07
1.28511e-07
1.28505e-07
1.28479e-07
1.28338e-07
1.28344e-07
1.28361e-07
1.28369e-07
1.28528e-07
1.28518e-07
1.28479e-07
1.28343e-07
1.28182e-07
1.28183e-07
1.28183e-07
1.28182e-07
1.2839e-07
1.28408e-07
1.28338e-07
1.28182e-07
1.28185e-07
1.28184e-07
1.28184e-07
1.28185e-07
1.28182e-07
1.28512e-07
1.28564e-07
1.28511e-07
1.28344e-07
1.28183e-07
1.28184e-07
1.28184e-07
1.28184e-07
1.28184e-07
1.28183e-07
1.28526e-07
1.28563e-07
1.28505e-07
1.28361e-07
1.28183e-07
1.28184e-07
1.28184e-07
1.28184e-07
1.28184e-07
1.28183e-07
1.28513e-07
1.28441e-07
1.28369e-07
1.28182e-07
1.28185e-07
1.28184e-07
1.28184e-07
1.28185e-07
1.28182e-07
1.28515e-07
1.28589e-07
1.28528e-07
1.2839e-07
1.28182e-07
1.28183e-07
1.28183e-07
1.28182e-07
1.28521e-07
1.2848e-07
1.28558e-07
1.28518e-07
1.28408e-07
1.28512e-07
1.28526e-07
1.28513e-07
1.28515e-07
1.2848e-07
1.28635e-07
1.28564e-07
1.28563e-07
1.28441e-07
1.28589e-07
1.28558e-07
1.27025e-07
1.27018e-07
1.26992e-07
1.26851e-07
1.26857e-07
1.26874e-07
1.26883e-07
1.27041e-07
1.27032e-07
1.26992e-07
1.26856e-07
1.26695e-07
1.26696e-07
1.26696e-07
1.26695e-07
1.26903e-07
1.26921e-07
1.26851e-07
1.26695e-07
1.26698e-07
1.26697e-07
1.26697e-07
1.26698e-07
1.26695e-07
1.27025e-07
1.27078e-07
1.27025e-07
1.26857e-07
1.26696e-07
1.26697e-07
1.26696e-07
1.26696e-07
1.26697e-07
1.26696e-07
1.27039e-07
1.27076e-07
1.27018e-07
1.26874e-07
1.26696e-07
1.26697e-07
1.26696e-07
1.26696e-07
1.26697e-07
1.26696e-07
1.27027e-07
1.26954e-07
1.26883e-07
1.26695e-07
1.26698e-07
1.26697e-07
1.26697e-07
1.26698e-07
1.26695e-07
1.27028e-07
1.27103e-07
1.27041e-07
1.26903e-07
1.26695e-07
1.26696e-07
1.26696e-07
1.26695e-07
1.27034e-07
1.26993e-07
1.27071e-07
1.27032e-07
1.26921e-07
1.27025e-07
1.27039e-07
1.27027e-07
1.27028e-07
1.26993e-07
1.27149e-07
1.27078e-07
1.27076e-07
1.26954e-07
1.27103e-07
1.27071e-07
1.25538e-07
1.25531e-07
1.25506e-07
1.25364e-07
1.2537e-07
1.25387e-07
1.25396e-07
1.25555e-07
1.25545e-07
1.25506e-07
1.25369e-07
1.25208e-07
1.25209e-07
1.25209e-07
1.25208e-07
1.25416e-07
1.25434e-07
1.25364e-07
1.25208e-07
1.25211e-07
1.2521e-07
1.2521e-07
1.25211e-07
1.25208e-07
1.25538e-07
1.25591e-07
1.25538e-07
1.2537e-07
1.25209e-07
1.2521e-07
1.25209e-07
1.25209e-07
1.2521e-07
1.25209e-07
1.25552e-07
1.25589e-07
1.25531e-07
1.25387e-07
1.25209e-07
1.2521e-07
1.25209e-07
1.25209e-07
1.2521e-07
1.25209e-07
1.2554e-07
1.25467e-07
1.25396e-07
1.25208e-07
1.25211e-07
1.2521e-07
1.2521e-07
1.25211e-07
1.25208e-07
1.25541e-07
1.25616e-07
1.25555e-07
1.25416e-07
1.25208e-07
1.25209e-07
1.25209e-07
1.25208e-07
1.25547e-07
1.25506e-07
1.25584e-07
1.25545e-07
1.25434e-07
1.25538e-07
1.25552e-07
1.2554e-07
1.25541e-07
1.25506e-07
1.25662e-07
1.25591e-07
1.25589e-07
1.25467e-07
1.25616e-07
1.25584e-07
1.24051e-07
1.24044e-07
1.24018e-07
1.23877e-07
1.23883e-07
1.239e-07
1.23909e-07
1.24067e-07
1.24058e-07
1.24018e-07
1.23882e-07
1.23721e-07
1.23722e-07
1.23722e-07
1.23721e-07
1.23929e-07
1.23947e-07
1.23877e-07
1.23721e-07
1.23724e-07
1.23723e-07
1.23723e-07
1.23724e-07
1.23721e-07
1.24051e-07
1.24104e-07
1.24051e-07
1.23883e-07
1.23722e-07
1.23723e-07
1.23722e-07
1.23722e-07
1.23723e-07
1.23722e-07
1.24065e-07
1.24102e-07
1.24044e-07
1.239e-07
1.23722e-07
1.23723e-07
1.23722e-07
1.23722e-07
1.23723e-07
1.23722e-07
1.24053e-07
1.2398e-07
1.23909e-07
1.23721e-07
1.23724e-07
1.23723e-07
1.23723e-07
1.23724e-07
1.23721e-07
1.24054e-07
1.24129e-07
1.24067e-07
1.23929e-07
1.23721e-07
1.23722e-07
1.23722e-07
1.23721e-07
1.2406e-07
1.24019e-07
1.24097e-07
1.24058e-07
1.23947e-07
1.24051e-07
1.24065e-07
1.24053e-07
1.24054e-07
1.24019e-07
1.24175e-07
1.24104e-07
1.24102e-07
1.2398e-07
1.24129e-07
1.24097e-07
1.22563e-07
1.22557e-07
1.22531e-07
1.2239e-07
1.22396e-07
1.22413e-07
1.22421e-07
1.2258e-07
1.22571e-07
1.22531e-07
1.22395e-07
1.22234e-07
1.22234e-07
1.22234e-07
1.22234e-07
1.22442e-07
1.2246e-07
1.2239e-07
1.22234e-07
1.22237e-07
1.22236e-07
1.22236e-07
1.22237e-07
1.22234e-07
1.22564e-07
1.22617e-07
1.22564e-07
1.22396e-07
1.22234e-07
1.22236e-07
1.22235e-07
1.22235e-07
1.22236e-07
1.22234e-07
1.22578e-07
1.22615e-07
1.22557e-07
1.22413e-07
1.22234e-07
1.22236e-07
1.22235e-07
1.22235e-07
1.22236e-07
1.22234e-07
1.22565e-07
1.22493e-07
1.22421e-07
1.22234e-07
1.22237e-07
1.22236e-07
1.22236e-07
1.22237e-07
1.22234e-07
1.22567e-07
1.22642e-07
1.2258e-07
1.22442e-07
1.22234e-07
1.22234e-07
1.22234e-07
1.22234e-07
1.22573e-07
1.22532e-07
1.2261e-07
1.22571e-07
1.2246e-07
1.22564e-07
1.22578e-07
1.22565e-07
1.22567e-07
1.22532e-07
1.22688e-07
1.22617e-07
1.22615e-07
1.22493e-07
1.22642e-07
1.2261e-07
1.21076e-07
1.2107e-07
1.21044e-07
1.20903e-07
1.20909e-07
1.20926e-07
1.20934e-07
1.21093e-07
1.21083e-07
1.21044e-07
1.20907e-07
1.20747e-07
1.20747e-07
1.20747e-07
1.20747e-07
1.20955e-07
1.20973e-07
1.20903e-07
1.20747e-07
1.2075e-07
1.20748e-07
1.20748e-07
1.2075e-07
1.20747e-07
1.21076e-07
1.21129e-07
1.21076e-07
1.20909e-07
1.20747e-07
1.20748e-07
1.20748e-07
1.20748e-07
1.20748e-07
1.20747e-07
1.2109e-07
1.21127e-07
1.2107e-07
1.20926e-07
1.20747e-07
1.20748e-07
1.20748e-07
1.20748e-07
1.20748e-07
1.20747e-07
1.21078e-07
1.21006e-07
1.20934e-07
1.20747e-07
1.2075e-07
1.20748e-07
1.20748e-07
1.2075e-07
1.20747e-07
1.2108e-07
1.21154e-07
1.21093e-07
1.20955e-07
1.20747e-07
1.20747e-07
1.20747e-07
1.20747e-07
1.21086e-07
1.21044e-07
1.21123e-07
1.21083e-07
1.20973e-07
1.21076e-07
1.2109e-07
1.21078e-07
1.2108e-07
1.21044e-07
1.212e-07
1.21129e-07
1.21127e-07
1.21006e-07
1.21154e-07
1.21123e-07
1.19589e-07
1.19583e-07
1.19557e-07
1.19416e-07
1.19421e-07
1.19438e-07
1.19447e-07
1.19606e-07
1.19596e-07
1.19557e-07
1.1942e-07
1.19259e-07
1.1926e-07
1.1926e-07
1.19259e-07
1.19467e-07
1.19485e-07
1.19416e-07
1.19259e-07
1.19263e-07
1.19261e-07
1.19261e-07
1.19263e-07
1.19259e-07
1.19589e-07
1.19642e-07
1.19589e-07
1.19421e-07
1.1926e-07
1.19261e-07
1.19261e-07
1.19261e-07
1.19261e-07
1.1926e-07
1.19603e-07
1.1964e-07
1.19583e-07
1.19438e-07
1.1926e-07
1.19261e-07
1.19261e-07
1.19261e-07
1.19261e-07
1.1926e-07
1.19591e-07
1.19519e-07
1.19447e-07
1.19259e-07
1.19263e-07
1.19261e-07
1.19261e-07
1.19263e-07
1.19259e-07
1.19593e-07
1.19667e-07
1.19606e-07
1.19467e-07
1.19259e-07
1.1926e-07
1.1926e-07
1.19259e-07
1.19599e-07
1.19557e-07
1.19636e-07
1.19596e-07
1.19485e-07
1.19589e-07
1.19603e-07
1.19591e-07
1.19593e-07
1.19557e-07
1.19713e-07
1.19642e-07
1.1964e-07
1.19519e-07
1.19667e-07
1.19636e-07
1.18102e-07
1.18095e-07
1.1807e-07
1.17928e-07
1.17934e-07
1.17951e-07
1.1796e-07
1.18119e-07
1.18109e-07
1.1807e-07
1.17933e-07
1.17772e-07
1.17773e-07
1.17773e-07
1.17772e-07
1.1798e-07
1.17998e-07
1.17928e-07
1.17772e-07
1.17775e-07
1.17774e-07
1.17774e-07
1.17775e-07
1.17772e-07
1.18102e-07
1.18155e-07
1.18102e-07
1.17934e-07
1.17773e-07
1.17774e-07
1.17773e-07
1.17773e-07
1.17774e-07
1.17773e-07
1.18116e-07
1.18153e-07
1.18095e-07
1.17951e-07
1.17773e-07
1.17774e-07
1.17773e-07
1.17773e-07
1.17774e-07
1.17773e-07
1.18104e-07
1.18031e-07
1.1796e-07
1.17772e-07
1.17775e-07
1.17774e-07
1.17774e-07
1.17775e-07
1.17772e-07
1.18105e-07
1.1818e-07
1.18119e-07
1.1798e-07
1.17772e-07
1.17773e-07
1.17773e-07
1.17772e-07
1.18112e-07
1.1807e-07
1.18149e-07
1.18109e-07
1.17998e-07
1.18102e-07
1.18116e-07
1.18104e-07
1.18105e-07
1.1807e-07
1.18226e-07
1.18155e-07
1.18153e-07
1.18031e-07
1.1818e-07
1.18149e-07
1.16615e-07
1.16608e-07
1.16582e-07
1.16441e-07
1.16447e-07
1.16464e-07
1.16473e-07
1.16631e-07
1.16622e-07
1.16582e-07
1.16446e-07
1.16285e-07
1.16285e-07
1.16285e-07
1.16285e-07
1.16493e-07
1.16511e-07
1.16441e-07
1.16285e-07
1.16288e-07
1.16287e-07
1.16287e-07
1.16288e-07
1.16285e-07
1.16615e-07
1.16668e-07
1.16615e-07
1.16447e-07
1.16285e-07
1.16287e-07
1.16286e-07
1.16286e-07
1.16287e-07
1.16285e-07
1.16629e-07
1.16666e-07
1.16608e-07
1.16464e-07
1.16285e-07
1.16287e-07
1.16286e-07
1.16286e-07
1.16287e-07
1.16285e-07
1.16616e-07
1.16544e-07
1.16473e-07
1.16285e-07
1.16288e-07
1.16287e-07
1.16287e-07
1.16288e-07
1.16285e-07
1.16618e-07
1.16693e-07
1.16631e-07
1.16493e-07
1.16285e-07
1.16285e-07
1.16285e-07
1.16285e-07
1.16624e-07
1.16583e-07
1.16661e-07
1.16622e-07
1.16511e-07
1.16615e-07
1.16629e-07
1.16616e-07
1.16618e-07
1.16583e-07
1.16739e-07
1.16668e-07
1.16666e-07
1.16544e-07
1.16693e-07
1.16661e-07
1.15127e-07
1.15121e-07
1.15095e-07
1.14954e-07
1.1496e-07
1.14977e-07
1.14985e-07
1.15144e-07
1.15135e-07
1.15095e-07
1.14959e-07
1.14798e-07
1.14798e-07
1.14798e-07
1.14798e-07
1.15006e-07
1.15024e-07
1.14954e-07
1.14798e-07
1.14801e-07
1.148e-07
1.148e-07
1.14801e-07
1.14798e-07
1.15128e-07
1.1518e-07
1.15127e-07
1.1496e-07
1.14798e-07
1.148e-07
1.14799e-07
1.14799e-07
1.148e-07
1.14798e-07
1.15142e-07
1.15179e-07
1.15121e-07
1.14977e-07
1.14798e-07
1.148e-07
1.14799e-07
1.14799e-07
1.148e-07
1.14798e-07
1.15129e-07
1.15057e-07
1.14985e-07
1.14798e-07
1.14801e-07
1.148e-07
1.148e-07
1.14801e-07
1.14798e-07
1.15131e-07
1.15206e-07
1.15144e-07
1.15006e-07
1.14798e-07
1.14798e-07
1.14798e-07
1.14798e-07
1.15137e-07
1.15096e-07
1.15174e-07
1.15135e-07
1.15024e-07
1.15128e-07
1.15142e-07
1.15129e-07
1.15131e-07
1.15096e-07
1.15251e-07
1.1518e-07
1.15179e-07
1.15057e-07
1.15206e-07
1.15174e-07
1.1364e-07
1.13634e-07
1.13608e-07
1.13467e-07
1.13473e-07
1.1349e-07
1.13498e-07
1.13657e-07
1.13647e-07
1.13608e-07
1.13471e-07
1.13311e-07
1.13311e-07
1.13311e-07
1.13311e-07
1.13519e-07
1.13537e-07
1.13467e-07
1.13311e-07
1.13314e-07
1.13313e-07
1.13313e-07
1.13314e-07
1.13311e-07
1.13641e-07
1.13693e-07
1.1364e-07
1.13473e-07
1.13311e-07
1.13313e-07
1.13312e-07
1.13312e-07
1.13313e-07
1.13311e-07
1.13655e-07
1.13691e-07
1.13634e-07
1.1349e-07
1.13311e-07
1.13313e-07
1.13312e-07
1.13312e-07
1.13313e-07
1.13311e-07
1.13642e-07
1.1357e-07
1.13498e-07
1.13311e-07
1.13314e-07
1.13313e-07
1.13313e-07
1.13314e-07
1.13311e-07
1.13644e-07
1.13718e-07
1.13657e-07
1.13519e-07
1.13311e-07
1.13311e-07
1.13311e-07
1.13311e-07
1.1365e-07
1.13609e-07
1.13687e-07
1.13647e-07
1.13537e-07
1.13641e-07
1.13655e-07
1.13642e-07
1.13644e-07
1.13609e-07
1.13764e-07
1.13693e-07
1.13692e-07
1.1357e-07
1.13718e-07
1.13687e-07
1.12153e-07
1.12147e-07
1.12121e-07
1.1198e-07
1.11986e-07
1.12003e-07
1.12011e-07
1.1217e-07
1.12161e-07
1.12121e-07
1.11985e-07
1.11824e-07
1.11824e-07
1.11824e-07
1.11824e-07
1.12032e-07
1.1205e-07
1.1198e-07
1.11824e-07
1.11827e-07
1.11826e-07
1.11826e-07
1.11827e-07
1.11824e-07
1.12154e-07
1.12206e-07
1.12153e-07
1.11986e-07
1.11824e-07
1.11826e-07
1.11825e-07
1.11825e-07
1.11826e-07
1.11824e-07
1.12168e-07
1.12205e-07
1.12147e-07
1.12003e-07
1.11824e-07
1.11826e-07
1.11825e-07
1.11825e-07
1.11826e-07
1.11824e-07
1.12155e-07
1.12083e-07
1.12011e-07
1.11824e-07
1.11827e-07
1.11826e-07
1.11826e-07
1.11827e-07
1.11824e-07
1.12157e-07
1.12231e-07
1.1217e-07
1.12032e-07
1.11824e-07
1.11824e-07
1.11824e-07
1.11824e-07
1.12163e-07
1.12122e-07
1.122e-07
1.1216e-07
1.1205e-07
1.12154e-07
1.12168e-07
1.12155e-07
1.12157e-07
1.12122e-07
1.12277e-07
1.12206e-07
1.12205e-07
1.12083e-07
1.12232e-07
1.122e-07
1.10667e-07
1.1066e-07
1.10634e-07
1.10493e-07
1.10499e-07
1.10516e-07
1.10525e-07
1.10683e-07
1.10674e-07
1.10634e-07
1.10498e-07
1.10337e-07
1.10338e-07
1.10338e-07
1.10337e-07
1.10545e-07
1.10563e-07
1.10493e-07
1.10337e-07
1.1034e-07
1.10339e-07
1.10339e-07
1.1034e-07
1.10337e-07
1.10667e-07
1.1072e-07
1.10667e-07
1.10499e-07
1.10338e-07
1.10339e-07
1.10338e-07
1.10338e-07
1.10339e-07
1.10338e-07
1.10681e-07
1.10718e-07
1.1066e-07
1.10516e-07
1.10338e-07
1.10339e-07
1.10338e-07
1.10338e-07
1.10339e-07
1.10338e-07
1.10668e-07
1.10596e-07
1.10525e-07
1.10337e-07
1.1034e-07
1.10339e-07
1.10339e-07
1.1034e-07
1.10337e-07
1.1067e-07
1.10745e-07
1.10683e-07
1.10545e-07
1.10337e-07
1.10338e-07
1.10338e-07
1.10337e-07
1.10676e-07
1.10635e-07
1.10713e-07
1.10674e-07
1.10563e-07
1.10667e-07
1.10681e-07
1.10669e-07
1.1067e-07
1.10635e-07
1.10791e-07
1.1072e-07
1.10718e-07
1.10596e-07
1.10745e-07
1.10713e-07
1.0918e-07
1.09173e-07
1.09148e-07
1.09006e-07
1.09012e-07
1.09029e-07
1.09038e-07
1.09197e-07
1.09187e-07
1.09148e-07
1.09011e-07
1.0885e-07
1.08851e-07
1.08851e-07
1.0885e-07
1.09058e-07
1.09076e-07
1.09006e-07
1.0885e-07
1.08853e-07
1.08852e-07
1.08852e-07
1.08853e-07
1.0885e-07
1.0918e-07
1.09233e-07
1.0918e-07
1.09012e-07
1.08851e-07
1.08852e-07
1.08851e-07
1.08851e-07
1.08852e-07
1.08851e-07
1.09194e-07
1.09231e-07
1.09173e-07
1.09029e-07
1.08851e-07
1.08852e-07
1.08851e-07
1.08851e-07
1.08852e-07
1.08851e-07
1.09182e-07
1.09109e-07
1.09038e-07
1.0885e-07
1.08853e-07
1.08852e-07
1.08852e-07
1.08853e-07
1.0885e-07
1.09183e-07
1.09258e-07
1.09197e-07
1.09058e-07
1.0885e-07
1.08851e-07
1.08851e-07
1.0885e-07
1.0919e-07
1.09148e-07
1.09227e-07
1.09187e-07
1.09076e-07
1.0918e-07
1.09194e-07
1.09182e-07
1.09183e-07
1.09148e-07
1.09304e-07
1.09233e-07
1.09231e-07
1.09109e-07
1.09258e-07
1.09227e-07
1.07693e-07
1.07687e-07
1.07661e-07
1.0752e-07
1.07525e-07
1.07543e-07
1.07551e-07
1.0771e-07
1.077e-07
1.07661e-07
1.07524e-07
1.07363e-07
1.07364e-07
1.07364e-07
1.07363e-07
1.07572e-07
1.07589e-07
1.0752e-07
1.07363e-07
1.07367e-07
1.07365e-07
1.07365e-07
1.07367e-07
1.07363e-07
1.07693e-07
1.07746e-07
1.07693e-07
1.07525e-07
1.07364e-07
1.07365e-07
1.07365e-07
1.07365e-07
1.07365e-07
1.07364e-07
1.07707e-07
1.07744e-07
1.07687e-07
1.07543e-07
1.07364e-07
1.07365e-07
1.07365e-07
1.07365e-07
1.07365e-07
1.07364e-07
1.07695e-07
1.07623e-07
1.07551e-07
1.07363e-07
1.07367e-07
1.07365e-07
1.07365e-07
1.07367e-07
1.07363e-07
1.07697e-07
1.07771e-07
1.0771e-07
1.07572e-07
1.07363e-07
1.07364e-07
1.07364e-07
1.07363e-07
1.07703e-07
1.07661e-07
1.0774e-07
1.077e-07
1.07589e-07
1.07693e-07
1.07707e-07
1.07695e-07
1.07697e-07
1.07661e-07
1.07817e-07
1.07746e-07
1.07744e-07
1.07623e-07
1.07771e-07
1.0774e-07
1.06206e-07
1.062e-07
1.06174e-07
1.06033e-07
1.06039e-07
1.06056e-07
1.06064e-07
1.06223e-07
1.06214e-07
1.06174e-07
1.06038e-07
1.05877e-07
1.05877e-07
1.05877e-07
1.05877e-07
1.06085e-07
1.06103e-07
1.06033e-07
1.05877e-07
1.0588e-07
1.05879e-07
1.05879e-07
1.0588e-07
1.05877e-07
1.06207e-07
1.06259e-07
1.06206e-07
1.06039e-07
1.05877e-07
1.05879e-07
1.05878e-07
1.05878e-07
1.05879e-07
1.05877e-07
1.06221e-07
1.06258e-07
1.062e-07
1.06056e-07
1.05877e-07
1.05879e-07
1.05878e-07
1.05878e-07
1.05879e-07
1.05877e-07
1.06208e-07
1.06136e-07
1.06064e-07
1.05877e-07
1.0588e-07
1.05879e-07
1.05879e-07
1.0588e-07
1.05877e-07
1.0621e-07
1.06285e-07
1.06223e-07
1.06085e-07
1.05877e-07
1.05877e-07
1.05877e-07
1.05877e-07
1.06216e-07
1.06175e-07
1.06253e-07
1.06214e-07
1.06103e-07
1.06207e-07
1.06221e-07
1.06208e-07
1.0621e-07
1.06175e-07
1.0633e-07
1.06259e-07
1.06258e-07
1.06136e-07
1.06285e-07
1.06253e-07
1.0472e-07
1.04713e-07
1.04688e-07
1.04546e-07
1.04552e-07
1.04569e-07
1.04578e-07
1.04737e-07
1.04727e-07
1.04688e-07
1.04551e-07
1.0439e-07
1.04391e-07
1.04391e-07
1.0439e-07
1.04598e-07
1.04616e-07
1.04546e-07
1.0439e-07
1.04393e-07
1.04392e-07
1.04392e-07
1.04393e-07
1.0439e-07
1.0472e-07
1.04773e-07
1.0472e-07
1.04552e-07
1.04391e-07
1.04392e-07
1.04391e-07
1.04391e-07
1.04392e-07
1.04391e-07
1.04734e-07
1.04771e-07
1.04713e-07
1.04569e-07
1.04391e-07
1.04392e-07
1.04391e-07
1.04391e-07
1.04392e-07
1.04391e-07
1.04722e-07
1.04649e-07
1.04578e-07
1.0439e-07
1.04393e-07
1.04392e-07
1.04392e-07
1.04393e-07
1.0439e-07
1.04723e-07
1.04798e-07
1.04737e-07
1.04598e-07
1.0439e-07
1.04391e-07
1.04391e-07
1.0439e-07
1.0473e-07
1.04688e-07
1.04767e-07
1.04727e-07
1.04616e-07
1.0472e-07
1.04734e-07
1.04722e-07
1.04723e-07
1.04688e-07
1.04844e-07
1.04773e-07
1.04771e-07
1.04649e-07
1.04798e-07
1.04767e-07
1.03233e-07
1.03227e-07
1.03201e-07
1.0306e-07
1.03066e-07
1.03083e-07
1.03091e-07
1.0325e-07
1.0324e-07
1.03201e-07
1.03064e-07
1.02904e-07
1.02904e-07
1.02904e-07
1.02904e-07
1.03112e-07
1.03129e-07
1.0306e-07
1.02904e-07
1.02907e-07
1.02905e-07
1.02905e-07
1.02907e-07
1.02904e-07
1.03233e-07
1.03286e-07
1.03233e-07
1.03066e-07
1.02904e-07
1.02905e-07
1.02905e-07
1.02905e-07
1.02905e-07
1.02904e-07
1.03247e-07
1.03284e-07
1.03227e-07
1.03083e-07
1.02904e-07
1.02905e-07
1.02905e-07
1.02905e-07
1.02905e-07
1.02904e-07
1.03235e-07
1.03163e-07
1.03091e-07
1.02904e-07
1.02907e-07
1.02905e-07
1.02905e-07
1.02907e-07
1.02904e-07
1.03237e-07
1.03311e-07
1.0325e-07
1.03112e-07
1.02904e-07
1.02904e-07
1.02904e-07
1.02904e-07
1.03243e-07
1.03201e-07
1.0328e-07
1.0324e-07
1.03129e-07
1.03233e-07
1.03247e-07
1.03235e-07
1.03237e-07
1.03201e-07
1.03357e-07
1.03286e-07
1.03284e-07
1.03163e-07
1.03311e-07
1.0328e-07
1.01746e-07
1.0174e-07
1.01714e-07
1.01573e-07
1.01579e-07
1.01596e-07
1.01604e-07
1.01763e-07
1.01754e-07
1.01714e-07
1.01578e-07
1.01417e-07
1.01417e-07
1.01417e-07
1.01417e-07
1.01625e-07
1.01643e-07
1.01573e-07
1.01417e-07
1.0142e-07
1.01419e-07
1.01419e-07
1.0142e-07
1.01417e-07
1.01747e-07
1.01799e-07
1.01746e-07
1.01579e-07
1.01417e-07
1.01419e-07
1.01418e-07
1.01418e-07
1.01419e-07
1.01417e-07
1.01761e-07
1.01798e-07
1.0174e-07
1.01596e-07
1.01417e-07
1.01419e-07
1.01418e-07
1.01418e-07
1.01419e-07
1.01417e-07
1.01748e-07
1.01676e-07
1.01604e-07
1.01417e-07
1.0142e-07
1.01419e-07
1.01419e-07
1.0142e-07
1.01417e-07
1.0175e-07
1.01824e-07
1.01763e-07
1.01625e-07
1.01417e-07
1.01417e-07
1.01417e-07
1.01417e-07
1.01756e-07
1.01715e-07
1.01793e-07
1.01753e-07
1.01643e-07
1.01747e-07
1.01761e-07
1.01748e-07
1.0175e-07
1.01715e-07
1.0187e-07
1.01799e-07
1.01798e-07
1.01676e-07
1.01825e-07
1.01793e-07
1.0026e-07
1.00253e-07
1.00227e-07
1.00086e-07
1.00092e-07
1.00109e-07
1.00118e-07
1.00276e-07
1.00267e-07
1.00227e-07
1.00091e-07
9.99299e-08
9.99305e-08
9.99305e-08
9.99299e-08
1.00138e-07
1.00156e-07
1.00086e-07
9.99299e-08
9.99332e-08
9.99318e-08
9.99318e-08
9.99332e-08
9.99299e-08
1.0026e-07
1.00313e-07
1.0026e-07
1.00092e-07
9.99305e-08
9.99318e-08
9.99312e-08
9.99312e-08
9.99318e-08
9.99305e-08
1.00274e-07
1.00311e-07
1.00253e-07
1.00109e-07
9.99305e-08
9.99318e-08
9.99312e-08
9.99312e-08
9.99318e-08
9.99305e-08
1.00262e-07
1.00189e-07
1.00118e-07
9.99299e-08
9.99332e-08
9.99318e-08
9.99318e-08
9.99332e-08
9.99299e-08
1.00263e-07
1.00338e-07
1.00276e-07
1.00138e-07
9.99299e-08
9.99305e-08
9.99305e-08
9.99299e-08
1.00269e-07
1.00228e-07
1.00306e-07
1.00267e-07
1.00156e-07
1.0026e-07
1.00274e-07
1.00262e-07
1.00263e-07
1.00228e-07
1.00384e-07
1.00313e-07
1.00311e-07
1.00189e-07
1.00338e-07
1.00306e-07
9.87727e-08
9.87664e-08
9.87405e-08
9.85993e-08
9.86051e-08
9.86222e-08
9.86307e-08
9.87896e-08
9.87798e-08
9.87406e-08
9.86038e-08
9.8443e-08
9.84436e-08
9.84436e-08
9.8443e-08
9.86512e-08
9.8669e-08
9.85993e-08
9.8443e-08
9.84463e-08
9.84449e-08
9.84449e-08
9.84463e-08
9.8443e-08
9.87729e-08
9.88258e-08
9.87727e-08
9.86051e-08
9.84436e-08
9.84449e-08
9.84443e-08
9.84443e-08
9.84449e-08
9.84436e-08
9.87869e-08
9.88238e-08
9.87664e-08
9.86222e-08
9.84436e-08
9.84449e-08
9.84443e-08
9.84443e-08
9.84449e-08
9.84436e-08
9.87746e-08
9.87022e-08
9.86307e-08
9.8443e-08
9.84463e-08
9.84449e-08
9.84449e-08
9.84463e-08
9.8443e-08
9.87762e-08
9.88508e-08
9.87895e-08
9.86512e-08
9.8443e-08
9.84436e-08
9.84436e-08
9.8443e-08
9.87825e-08
9.87409e-08
9.88195e-08
9.87798e-08
9.8669e-08
9.87729e-08
9.87869e-08
9.87746e-08
9.87762e-08
9.87409e-08
9.88968e-08
9.88257e-08
9.88239e-08
9.87022e-08
9.88508e-08
9.88195e-08
9.72857e-08
9.72794e-08
9.72536e-08
9.71123e-08
9.71181e-08
9.71352e-08
9.71437e-08
9.73026e-08
9.72928e-08
9.72536e-08
9.71168e-08
9.6956e-08
9.69566e-08
9.69566e-08
9.6956e-08
9.71642e-08
9.7182e-08
9.71123e-08
9.6956e-08
9.69593e-08
9.69579e-08
9.69579e-08
9.69593e-08
9.6956e-08
9.72859e-08
9.73388e-08
9.72857e-08
9.71181e-08
9.69566e-08
9.69579e-08
9.69573e-08
9.69573e-08
9.69579e-08
9.69566e-08
9.72999e-08
9.73369e-08
9.72794e-08
9.71352e-08
9.69566e-08
9.69579e-08
9.69573e-08
9.69573e-08
9.69579e-08
9.69566e-08
9.72876e-08
9.72152e-08
9.71437e-08
9.6956e-08
9.69593e-08
9.69579e-08
9.69579e-08
9.69593e-08
9.6956e-08
9.72892e-08
9.73638e-08
9.73026e-08
9.71642e-08
9.6956e-08
9.69566e-08
9.69566e-08
9.6956e-08
9.72955e-08
9.72539e-08
9.73325e-08
9.72928e-08
9.7182e-08
9.72859e-08
9.72999e-08
9.72876e-08
9.72893e-08
9.7254e-08
9.74098e-08
9.73388e-08
9.73369e-08
9.72152e-08
9.73639e-08
9.73325e-08
9.57987e-08
9.57924e-08
9.57665e-08
9.56253e-08
9.56311e-08
9.56482e-08
9.56566e-08
9.58156e-08
9.58058e-08
9.57666e-08
9.56298e-08
9.5469e-08
9.54696e-08
9.54696e-08
9.5469e-08
9.56772e-08
9.5695e-08
9.56253e-08
9.5469e-08
9.54723e-08
9.54709e-08
9.54709e-08
9.54723e-08
9.5469e-08
9.57989e-08
9.58518e-08
9.57987e-08
9.56311e-08
9.54696e-08
9.54709e-08
9.54702e-08
9.54702e-08
9.54709e-08
9.54696e-08
9.58129e-08
9.58498e-08
9.57924e-08
9.56482e-08
9.54696e-08
9.54709e-08
9.54702e-08
9.54702e-08
9.54709e-08
9.54696e-08
9.58006e-08
9.57282e-08
9.56566e-08
9.5469e-08
9.54723e-08
9.54709e-08
9.54709e-08
9.54723e-08
9.5469e-08
9.58022e-08
9.58768e-08
9.58155e-08
9.56772e-08
9.5469e-08
9.54696e-08
9.54696e-08
9.5469e-08
9.58085e-08
9.57669e-08
9.58455e-08
9.58058e-08
9.5695e-08
9.57989e-08
9.58129e-08
9.58006e-08
9.58022e-08
9.57669e-08
9.59228e-08
9.58517e-08
9.58499e-08
9.57282e-08
9.58768e-08
9.58455e-08
9.43116e-08
9.43053e-08
9.42795e-08
9.41382e-08
9.4144e-08
9.41611e-08
9.41696e-08
9.43285e-08
9.43188e-08
9.42795e-08
9.41427e-08
9.39819e-08
9.39825e-08
9.39825e-08
9.39819e-08
9.41901e-08
9.42079e-08
9.41382e-08
9.39819e-08
9.39852e-08
9.39838e-08
9.39838e-08
9.39852e-08
9.39819e-08
9.43118e-08
9.43647e-08
9.43117e-08
9.4144e-08
9.39825e-08
9.39838e-08
9.39832e-08
9.39832e-08
9.39838e-08
9.39825e-08
9.43258e-08
9.43628e-08
9.43053e-08
9.41611e-08
9.39825e-08
9.39838e-08
9.39832e-08
9.39832e-08
9.39838e-08
9.39825e-08
9.43135e-08
9.42411e-08
9.41696e-08
9.39819e-08
9.39852e-08
9.39838e-08
9.39838e-08
9.39852e-08
9.39819e-08
9.43151e-08
9.43897e-08
9.43285e-08
9.41901e-08
9.39819e-08
9.39825e-08
9.39825e-08
9.39819e-08
9.43214e-08
9.42798e-08
9.43584e-08