/*--------------------------------*- C++ -*----------------------------------*\
| =========                 |                                                 |
| \\      /  F ield         | OpenFOAM: The Open Source CFD Toolbox           |
|  \\    /   O peration     | Version:  v2012                                 |
|   \\  /    A nd           | Website:  www.openfoam.com                      |
|    \\/     M anipulation  |                                                 |
\*---------------------------------------------------------------------------*/
FoamFile
{
    version     2.0;
    format      ascii;
    class       volScalarField;
    location    "0.01";
    object      p;
}
// * * * * * * * * * * * * * * * * * * * * * * * * * * * * * * * * * * * * * //

dimensions      [0 2 -2 0 0 0 0];


internalField   nonuniform List<scalar> 
189320
(
-1.77315e-05
-1.72751e-05
-1.82243e-05
-1.92344e-05
-1.98182e-05
-1.97342e-05
-1.96288e-05
-1.87875e-05
-1.83264e-05
-1.82306e-05
-1.97629e-05
-2.07078e-05
-2.08674e-05
-2.08521e-05
-2.08345e-05
-2.03643e-05
-1.92219e-05
-1.92406e-05
-2.07086e-05
-2.09425e-05
-2.10034e-05
-2.10128e-05
-2.09851e-05
-2.08782e-05
-2.01166e-05
-1.85771e-05
-1.77323e-05
-1.98174e-05
-2.08691e-05
-2.1004e-05
-2.10676e-05
-2.10823e-05
-2.10452e-05
-2.09568e-05
-2.06802e-05
-1.87358e-05
-1.72751e-05
-1.97336e-05
-2.08532e-05
-2.10138e-05
-2.10829e-05
-2.11003e-05
-2.10582e-05
-2.096e-05
-2.06131e-05
-1.84468e-05
-1.96291e-05
-2.08356e-05
-2.09864e-05
-2.10463e-05
-2.10589e-05
-2.10261e-05
-2.09378e-05
-2.05416e-05
-1.86478e-05
-1.87878e-05
-2.03653e-05
-2.08799e-05
-2.09583e-05
-2.09614e-05
-2.09386e-05
-2.07636e-05
-1.95858e-05
-1.83636e-05
-1.83264e-05
-1.92231e-05
-2.0118e-05
-2.06818e-05
-2.06158e-05
-2.05449e-05
-1.95981e-05
-1.94688e-05
-1.85772e-05
-1.8739e-05
-1.84531e-05
-1.86506e-05
-1.8367e-05
-1.80985e-05
-1.80046e-05
-1.81839e-05
-1.85181e-05
-1.89833e-05
-1.9072e-05
-1.88576e-05
-1.84379e-05
-1.82364e-05
-1.81844e-05
-1.89891e-05
-2.00094e-05
-2.01909e-05
-2.01925e-05
-2.00095e-05
-1.98887e-05
-1.86526e-05
-1.85194e-05
-2.00104e-05
-2.03234e-05
-2.04709e-05
-2.04716e-05
-2.03237e-05
-2.00114e-05
-1.97807e-05
-1.82947e-05
-1.81006e-05
-1.8984e-05
-2.01934e-05
-2.04722e-05
-2.06015e-05
-2.06016e-05
-2.04715e-05
-2.01916e-05
-2.03671e-05
-1.85203e-05
-1.80072e-05
-1.90723e-05
-2.01937e-05
-2.04727e-05
-2.06021e-05
-2.0602e-05
-2.0472e-05
-2.01921e-05
-2.03516e-05
-1.83678e-05
-1.88594e-05
-2.00111e-05
-2.03252e-05
-2.0473e-05
-2.04733e-05
-2.03255e-05
-2.00123e-05
-2.02045e-05
-1.85562e-05
-1.844e-05
-1.98896e-05
-2.00131e-05
-2.01938e-05
-2.0195e-05
-2.00132e-05
-2.07669e-05
-1.93278e-05
-1.82765e-05
-1.82382e-05
-1.86533e-05
-1.97819e-05
-2.03687e-05
-2.03534e-05
-2.02055e-05
-1.93316e-05
-1.8794e-05
-1.82968e-05
-1.85223e-05
-1.83674e-05
-1.85574e-05
-1.8278e-05
-1.8921e-05
-1.88825e-05
-1.88692e-05
-1.89823e-05
-1.92055e-05
-1.92031e-05
-1.91784e-05
-1.90379e-05
-1.89208e-05
-1.88696e-05
-1.90225e-05
-1.94986e-05
-1.96516e-05
-1.96538e-05
-1.94996e-05
-1.9505e-05
-1.91568e-05
-1.89837e-05
-1.95011e-05
-1.97966e-05
-1.99604e-05
-1.99618e-05
-1.97967e-05
-1.94986e-05
-1.95932e-05
-1.89614e-05
-1.89224e-05
-1.92068e-05
-1.96556e-05
-1.9963e-05
-2.01177e-05
-2.01174e-05
-1.99598e-05
-1.96502e-05
-1.98951e-05
-1.90947e-05
-1.88839e-05
-1.92045e-05
-1.96554e-05
-1.99634e-05
-2.01181e-05
-2.01173e-05
-1.99596e-05
-1.965e-05
-1.98451e-05
-1.90439e-05
-1.91804e-05
-1.95013e-05
-1.97988e-05
-1.9962e-05
-1.99625e-05
-1.97972e-05
-1.94992e-05
-1.9825e-05
-1.91124e-05
-1.904e-05
-1.95077e-05
-1.95012e-05
-1.9653e-05
-1.96548e-05
-1.95015e-05
-2.00485e-05
-1.94174e-05
-1.89471e-05
-1.89228e-05
-1.91593e-05
-1.95957e-05
-1.9897e-05
-1.9848e-05
-1.9828e-05
-1.94192e-05
-1.92614e-05
-1.89632e-05
-1.90964e-05
-1.90452e-05
-1.91141e-05
-1.89476e-05
-1.90017e-05
-1.89606e-05
-1.89408e-05
-1.90522e-05
-1.91899e-05
-1.9161e-05
-1.91863e-05
-1.91044e-05
-1.89912e-05
-1.89414e-05
-1.904e-05
-1.91845e-05
-1.92844e-05
-1.92859e-05
-1.91848e-05
-1.93733e-05
-1.91791e-05
-1.90538e-05
-1.91862e-05
-1.9411e-05
-1.95409e-05
-1.95419e-05
-1.94104e-05
-1.91851e-05
-1.94785e-05
-1.90448e-05
-1.90034e-05
-1.91916e-05
-1.92886e-05
-1.95433e-05
-1.96772e-05
-1.96773e-05
-1.954e-05
-1.92835e-05
-1.95858e-05
-1.91279e-05
-1.89624e-05
-1.91631e-05
-1.92879e-05
-1.9543e-05
-1.96774e-05
-1.96772e-05
-1.95398e-05
-1.92836e-05
-1.95326e-05
-1.90743e-05
-1.91886e-05
-1.91876e-05
-1.94124e-05
-1.95424e-05
-1.95428e-05
-1.94107e-05
-1.91841e-05
-1.95769e-05
-1.91473e-05
-1.91057e-05
-1.93751e-05
-1.91873e-05
-1.92876e-05
-1.92884e-05
-1.91864e-05
-1.96554e-05
-1.93512e-05
-1.90257e-05
-1.89928e-05
-1.91805e-05
-1.94804e-05
-1.95884e-05
-1.95356e-05
-1.95785e-05
-1.93518e-05
-1.92847e-05
-1.90469e-05
-1.913e-05
-1.90766e-05
-1.91489e-05
-1.9027e-05
-1.88968e-05
-1.88535e-05
-1.88375e-05
-1.89409e-05
-1.90557e-05
-1.90162e-05
-1.90568e-05
-1.8997e-05
-1.88879e-05
-1.88376e-05
-1.89207e-05
-1.89598e-05
-1.90098e-05
-1.90099e-05
-1.89596e-05
-1.92167e-05
-1.90581e-05
-1.89414e-05
-1.89605e-05
-1.90823e-05
-1.91697e-05
-1.91699e-05
-1.90818e-05
-1.89594e-05
-1.93198e-05
-1.89414e-05
-1.8898e-05
-1.9057e-05
-1.90111e-05
-1.91711e-05
-1.927e-05
-1.92697e-05
-1.91693e-05
-1.90093e-05
-1.93802e-05
-1.90095e-05
-1.88548e-05
-1.90175e-05
-1.90112e-05
-1.91715e-05
-1.92698e-05
-1.92695e-05
-1.91696e-05
-1.90093e-05
-1.93163e-05
-1.89485e-05
-1.90581e-05
-1.89607e-05
-1.90827e-05
-1.91701e-05
-1.91703e-05
-1.90821e-05
-1.89596e-05
-1.93898e-05
-1.903e-05
-1.89984e-05
-1.92177e-05
-1.89601e-05
-1.90101e-05
-1.90105e-05
-1.89603e-05
-1.94336e-05
-1.92083e-05
-1.8923e-05
-1.88889e-05
-1.90592e-05
-1.93209e-05
-1.93809e-05
-1.93174e-05
-1.93906e-05
-1.92084e-05
-1.9167e-05
-1.89431e-05
-1.90104e-05
-1.89495e-05
-1.9031e-05
-1.89236e-05
-1.87315e-05
-1.86872e-05
-1.86745e-05
-1.87731e-05
-1.88805e-05
-1.88373e-05
-1.8883e-05
-1.88332e-05
-1.87251e-05
-1.86744e-05
-1.87517e-05
-1.87504e-05
-1.87734e-05
-1.87734e-05
-1.87503e-05
-1.90362e-05
-1.88887e-05
-1.87725e-05
-1.87506e-05
-1.88073e-05
-1.88494e-05
-1.88493e-05
-1.88071e-05
-1.87503e-05
-1.91378e-05
-1.87791e-05
-1.8732e-05
-1.88806e-05
-1.87739e-05
-1.88498e-05
-1.89026e-05
-1.89024e-05
-1.88492e-05
-1.87733e-05
-1.91817e-05
-1.88403e-05
-1.86875e-05
-1.88376e-05
-1.87739e-05
-1.88498e-05
-1.89026e-05
-1.89024e-05
-1.88492e-05
-1.87733e-05
-1.91146e-05
-1.87758e-05
-1.88831e-05
-1.87507e-05
-1.88075e-05
-1.88495e-05
-1.88495e-05
-1.88072e-05
-1.87504e-05
-1.91983e-05
-1.88609e-05
-1.88333e-05
-1.90366e-05
-1.87506e-05
-1.87736e-05
-1.87737e-05
-1.87506e-05
-1.92314e-05
-1.90318e-05
-1.87598e-05
-1.87255e-05
-1.88894e-05
-1.91383e-05
-1.91819e-05
-1.91147e-05
-1.91981e-05
-1.90313e-05
-1.89994e-05
-1.87785e-05
-1.88405e-05
-1.87761e-05
-1.88614e-05
-1.876e-05
-1.85398e-05
-1.84952e-05
-1.84841e-05
-1.85799e-05
-1.86842e-05
-1.86398e-05
-1.86874e-05
-1.86416e-05
-1.85351e-05
-1.84843e-05
-1.85586e-05
-1.85392e-05
-1.85495e-05
-1.85497e-05
-1.85393e-05
-1.88392e-05
-1.86957e-05
-1.85798e-05
-1.85394e-05
-1.85647e-05
-1.8584e-05
-1.8584e-05
-1.85646e-05
-1.85393e-05
-1.89395e-05
-1.85882e-05
-1.85401e-05
-1.86842e-05
-1.85498e-05
-1.85842e-05
-1.86088e-05
-1.86087e-05
-1.85839e-05
-1.85495e-05
-1.89767e-05
-1.86474e-05
-1.84953e-05
-1.86397e-05
-1.85498e-05
-1.85843e-05
-1.86089e-05
-1.86087e-05
-1.85839e-05
-1.85495e-05
-1.89088e-05
-1.85805e-05
-1.86874e-05
-1.85394e-05
-1.85649e-05
-1.85841e-05
-1.8584e-05
-1.85646e-05
-1.85392e-05
-1.89961e-05
-1.8668e-05
-1.86415e-05
-1.88393e-05
-1.85392e-05
-1.85496e-05
-1.85498e-05
-1.85393e-05
-1.90255e-05
-1.88357e-05
-1.85688e-05
-1.85349e-05
-1.86958e-05
-1.89396e-05
-1.89768e-05
-1.89088e-05
-1.89958e-05
-1.88353e-05
-1.88069e-05
-1.85871e-05
-1.86473e-05
-1.85805e-05
-1.86681e-05
-1.85688e-05
-1.83366e-05
-1.82918e-05
-1.82819e-05
-1.83757e-05
-1.8479e-05
-1.8434e-05
-1.84824e-05
-1.84384e-05
-1.83325e-05
-1.82821e-05
-1.83549e-05
-1.83272e-05
-1.83317e-05
-1.83319e-05
-1.83273e-05
-1.86336e-05
-1.84917e-05
-1.8376e-05
-1.83273e-05
-1.83383e-05
-1.83469e-05
-1.83471e-05
-1.83383e-05
-1.83272e-05
-1.87331e-05
-1.83847e-05
-1.83369e-05
-1.84793e-05
-1.83318e-05
-1.83471e-05
-1.83583e-05
-1.83583e-05
-1.8347e-05
-1.83318e-05
-1.87681e-05
-1.84427e-05
-1.82919e-05
-1.84342e-05
-1.83319e-05
-1.83472e-05
-1.83584e-05
-1.83583e-05
-1.8347e-05
-1.83318e-05
-1.86994e-05
-1.83758e-05
-1.84826e-05
-1.83273e-05
-1.83385e-05
-1.83471e-05
-1.83471e-05
-1.83384e-05
-1.83272e-05
-1.87884e-05
-1.84637e-05
-1.84385e-05
-1.86336e-05
-1.83272e-05
-1.83317e-05
-1.83319e-05
-1.83274e-05
-1.88167e-05
-1.86308e-05
-1.83664e-05
-1.83322e-05
-1.8492e-05
-1.87333e-05
-1.87679e-05
-1.86993e-05
-1.87879e-05
-1.86305e-05
-1.86037e-05
-1.83838e-05
-1.84428e-05
-1.8376e-05
-1.84643e-05
-1.83661e-05
-1.81285e-05
-1.80836e-05
-1.80732e-05
-1.81668e-05
-1.82694e-05
-1.82244e-05
-1.82728e-05
-1.823e-05
-1.81243e-05
-1.80734e-05
-1.81454e-05
-1.81143e-05
-1.81162e-05
-1.81162e-05
-1.81143e-05
-1.84238e-05
-1.82828e-05
-1.8167e-05
-1.81143e-05
-1.81191e-05
-1.81229e-05
-1.81229e-05
-1.8119e-05
-1.81142e-05
-1.85237e-05
-1.81769e-05
-1.81287e-05
-1.82696e-05
-1.81161e-05
-1.81229e-05
-1.8128e-05
-1.8128e-05
-1.81229e-05
-1.81161e-05
-1.85569e-05
-1.82342e-05
-1.80836e-05
-1.82244e-05
-1.81161e-05
-1.81229e-05
-1.8128e-05
-1.8128e-05
-1.81229e-05
-1.81162e-05
-1.84883e-05
-1.81668e-05
-1.82731e-05
-1.81143e-05
-1.81191e-05
-1.8123e-05
-1.81229e-05
-1.81191e-05
-1.81143e-05
-1.8578e-05
-1.82554e-05
-1.82301e-05
-1.84237e-05
-1.81143e-05
-1.81162e-05
-1.81161e-05
-1.81143e-05
-1.86053e-05
-1.84212e-05
-1.81584e-05
-1.8124e-05
-1.82831e-05
-1.85238e-05
-1.85568e-05
-1.84881e-05
-1.85773e-05
-1.84209e-05
-1.83949e-05
-1.8176e-05
-1.82343e-05
-1.8167e-05
-1.82558e-05
-1.81582e-05
-1.79162e-05
-1.78712e-05
-1.78606e-05
-1.79538e-05
-1.80567e-05
-1.80111e-05
-1.80598e-05
-1.80173e-05
-1.79115e-05
-1.78609e-05
-1.79322e-05
-1.78995e-05
-1.79004e-05
-1.79004e-05
-1.78994e-05
-1.82103e-05
-1.80695e-05
-1.79539e-05
-1.78994e-05
-1.79015e-05
-1.79032e-05
-1.79032e-05
-1.79015e-05
-1.78994e-05
-1.83099e-05
-1.79641e-05
-1.79165e-05
-1.80567e-05
-1.79003e-05
-1.79032e-05
-1.79056e-05
-1.79056e-05
-1.79032e-05
-1.79003e-05
-1.8343e-05
-1.80215e-05
-1.78712e-05
-1.80112e-05
-1.79003e-05
-1.79031e-05
-1.79056e-05
-1.79056e-05
-1.79031e-05
-1.79003e-05
-1.82743e-05
-1.79536e-05
-1.80602e-05
-1.78997e-05
-1.79017e-05
-1.79033e-05
-1.79033e-05
-1.79017e-05
-1.78997e-05
-1.83642e-05
-1.80424e-05
-1.80175e-05
-1.82101e-05
-1.78996e-05
-1.79005e-05
-1.79005e-05
-1.78996e-05
-1.83913e-05
-1.82079e-05
-1.79455e-05
-1.79113e-05
-1.80698e-05
-1.83101e-05
-1.83427e-05
-1.82741e-05
-1.83635e-05
-1.82075e-05
-1.8182e-05
-1.79633e-05
-1.80216e-05
-1.79537e-05
-1.80429e-05
-1.79452e-05
-1.77006e-05
-1.76554e-05
-1.76455e-05
-1.77385e-05
-1.78409e-05
-1.77953e-05
-1.78441e-05
-1.78023e-05
-1.76962e-05
-1.76458e-05
-1.77172e-05
-1.76834e-05
-1.76839e-05
-1.76839e-05
-1.76834e-05
-1.79946e-05
-1.78542e-05
-1.77387e-05
-1.76834e-05
-1.76844e-05
-1.76852e-05
-1.76851e-05
-1.76843e-05
-1.76834e-05
-1.80944e-05
-1.7749e-05
-1.77008e-05
-1.78409e-05
-1.7684e-05
-1.76852e-05
-1.76863e-05
-1.76863e-05
-1.76852e-05
-1.76839e-05
-1.81272e-05
-1.78063e-05
-1.76555e-05
-1.77953e-05
-1.76839e-05
-1.76852e-05
-1.76863e-05
-1.76863e-05
-1.76852e-05
-1.7684e-05
-1.80585e-05
-1.77382e-05
-1.78444e-05
-1.76834e-05
-1.76844e-05
-1.76852e-05
-1.76852e-05
-1.76844e-05
-1.76835e-05
-1.81486e-05
-1.78274e-05
-1.78021e-05
-1.79944e-05
-1.76834e-05
-1.7684e-05
-1.7684e-05
-1.76835e-05
-1.81755e-05
-1.79927e-05
-1.77307e-05
-1.7696e-05
-1.78544e-05
-1.80945e-05
-1.81268e-05
-1.80582e-05
-1.81479e-05
-1.79923e-05
-1.79672e-05
-1.7748e-05
-1.78063e-05
-1.77384e-05
-1.78278e-05
-1.77304e-05
-1.7485e-05
-1.74399e-05
-1.74294e-05
-1.75229e-05
-1.76253e-05
-1.75798e-05
-1.76287e-05
-1.75862e-05
-1.74804e-05
-1.74298e-05
-1.75015e-05
-1.74676e-05
-1.74678e-05
-1.74678e-05
-1.74676e-05
-1.7779e-05
-1.76385e-05
-1.75229e-05
-1.74676e-05
-1.74681e-05
-1.74685e-05
-1.74686e-05
-1.74681e-05
-1.74676e-05
-1.78787e-05
-1.75331e-05
-1.74852e-05
-1.76255e-05
-1.74678e-05
-1.74686e-05
-1.74692e-05
-1.74692e-05
-1.74685e-05
-1.74677e-05
-1.79113e-05
-1.75905e-05
-1.74399e-05
-1.758e-05
-1.74678e-05
-1.74686e-05
-1.74692e-05
-1.74692e-05
-1.74685e-05
-1.74677e-05
-1.78427e-05
-1.75225e-05
-1.76289e-05
-1.74676e-05
-1.74681e-05
-1.74685e-05
-1.74685e-05
-1.7468e-05
-1.74675e-05
-1.79327e-05
-1.76114e-05
-1.75863e-05
-1.77788e-05
-1.74676e-05
-1.74677e-05
-1.74677e-05
-1.74675e-05
-1.79594e-05
-1.77766e-05
-1.75144e-05
-1.74802e-05
-1.76387e-05
-1.78788e-05
-1.7911e-05
-1.78423e-05
-1.7932e-05
-1.77762e-05
-1.77508e-05
-1.75322e-05
-1.75906e-05
-1.75226e-05
-1.76118e-05
-1.75141e-05
-1.72697e-05
-1.72247e-05
-1.72145e-05
-1.73078e-05
-1.74101e-05
-1.73647e-05
-1.74139e-05
-1.73714e-05
-1.72658e-05
-1.72148e-05
-1.72867e-05
-1.72526e-05
-1.72526e-05
-1.72526e-05
-1.72527e-05
-1.75642e-05
-1.74237e-05
-1.73078e-05
-1.72526e-05
-1.72528e-05
-1.72529e-05
-1.7253e-05
-1.72528e-05
-1.72527e-05
-1.76638e-05
-1.73181e-05
-1.72699e-05
-1.74103e-05
-1.72526e-05
-1.72529e-05
-1.72533e-05
-1.72533e-05
-1.7253e-05
-1.72527e-05
-1.76965e-05
-1.73755e-05
-1.72247e-05
-1.73649e-05
-1.72526e-05
-1.7253e-05
-1.72532e-05
-1.72532e-05
-1.7253e-05
-1.72527e-05
-1.76278e-05
-1.73076e-05
-1.7414e-05
-1.72527e-05
-1.72529e-05
-1.72531e-05
-1.72531e-05
-1.72529e-05
-1.72527e-05
-1.77179e-05
-1.73966e-05
-1.73715e-05
-1.7564e-05
-1.72527e-05
-1.72527e-05
-1.72527e-05
-1.72527e-05
-1.77447e-05
-1.75619e-05
-1.72997e-05
-1.72654e-05
-1.7424e-05
-1.76639e-05
-1.7696e-05
-1.76274e-05
-1.77172e-05
-1.75615e-05
-1.75361e-05
-1.73172e-05
-1.73755e-05
-1.73077e-05
-1.7397e-05
-1.72994e-05
-1.70553e-05
-1.70102e-05
-1.70004e-05
-1.70934e-05
-1.71956e-05
-1.71501e-05
-1.71991e-05
-1.71567e-05
-1.7051e-05
-1.70005e-05
-1.70722e-05
-1.70378e-05
-1.70377e-05
-1.70377e-05
-1.70376e-05
-1.73493e-05
-1.72089e-05
-1.70934e-05
-1.70378e-05
-1.70377e-05
-1.70377e-05
-1.70376e-05
-1.70376e-05
-1.70377e-05
-1.7449e-05
-1.71035e-05
-1.70555e-05
-1.71958e-05
-1.70377e-05
-1.70377e-05
-1.70377e-05
-1.70376e-05
-1.70376e-05
-1.70376e-05
-1.74816e-05
-1.71608e-05
-1.70102e-05
-1.71502e-05
-1.70377e-05
-1.70377e-05
-1.70376e-05
-1.70376e-05
-1.70376e-05
-1.70376e-05
-1.74129e-05
-1.70927e-05
-1.71992e-05
-1.70377e-05
-1.70377e-05
-1.70377e-05
-1.70376e-05
-1.70377e-05
-1.70377e-05
-1.7503e-05
-1.71817e-05
-1.71567e-05
-1.73491e-05
-1.70377e-05
-1.70377e-05
-1.70377e-05
-1.70377e-05
-1.75298e-05
-1.73471e-05
-1.70849e-05
-1.70507e-05
-1.72092e-05
-1.74491e-05
-1.74812e-05
-1.74125e-05
-1.75023e-05
-1.73467e-05
-1.73215e-05
-1.71026e-05
-1.71608e-05
-1.70928e-05
-1.71821e-05
-1.70847e-05
-1.68397e-05
-1.67947e-05
-1.67847e-05
-1.68775e-05
-1.69797e-05
-1.69343e-05
-1.69832e-05
-1.69411e-05
-1.68355e-05
-1.67848e-05
-1.68562e-05
-1.68217e-05
-1.68217e-05
-1.68217e-05
-1.68218e-05
-1.71336e-05
-1.69933e-05
-1.68774e-05
-1.68217e-05
-1.68217e-05
-1.68217e-05
-1.68217e-05
-1.68217e-05
-1.68218e-05
-1.72334e-05
-1.68881e-05
-1.68399e-05
-1.69799e-05
-1.68217e-05
-1.68217e-05
-1.68217e-05
-1.68217e-05
-1.68217e-05
-1.68218e-05
-1.72659e-05
-1.69453e-05
-1.67947e-05
-1.69344e-05
-1.68217e-05
-1.68217e-05
-1.68217e-05
-1.68217e-05
-1.68217e-05
-1.68218e-05
-1.71972e-05
-1.68771e-05
-1.69835e-05
-1.68218e-05
-1.68217e-05
-1.68217e-05
-1.68217e-05
-1.68218e-05
-1.68218e-05
-1.72873e-05
-1.69663e-05
-1.69413e-05
-1.71334e-05
-1.68218e-05
-1.68218e-05
-1.68218e-05
-1.68218e-05
-1.7314e-05
-1.71314e-05
-1.68694e-05
-1.68352e-05
-1.69936e-05
-1.72334e-05
-1.72654e-05
-1.71967e-05
-1.72866e-05
-1.7131e-05
-1.71059e-05
-1.68871e-05
-1.69453e-05
-1.68772e-05
-1.69666e-05
-1.68692e-05
-1.66228e-05
-1.65778e-05
-1.65679e-05
-1.66609e-05
-1.67632e-05
-1.67177e-05
-1.67666e-05
-1.67244e-05
-1.66189e-05
-1.6568e-05
-1.66396e-05
-1.66055e-05
-1.66055e-05
-1.66055e-05
-1.66055e-05
-1.69172e-05
-1.67767e-05
-1.66609e-05
-1.66055e-05
-1.66055e-05
-1.66055e-05
-1.66055e-05
-1.66055e-05
-1.66054e-05
-1.70168e-05
-1.66713e-05
-1.66231e-05
-1.67634e-05
-1.66055e-05
-1.66055e-05
-1.66055e-05
-1.66055e-05
-1.66055e-05
-1.66055e-05
-1.70494e-05
-1.67286e-05
-1.65779e-05
-1.67179e-05
-1.66055e-05
-1.66055e-05
-1.66055e-05
-1.66055e-05
-1.66055e-05
-1.66055e-05
-1.69806e-05
-1.66604e-05
-1.67669e-05
-1.66055e-05
-1.66055e-05
-1.66055e-05
-1.66055e-05
-1.66055e-05
-1.66054e-05
-1.70707e-05
-1.67495e-05
-1.67245e-05
-1.69169e-05
-1.66055e-05
-1.66055e-05
-1.66055e-05
-1.66054e-05
-1.70975e-05
-1.69147e-05
-1.66526e-05
-1.66185e-05
-1.67769e-05
-1.70169e-05
-1.70489e-05
-1.69802e-05
-1.707e-05
-1.69143e-05
-1.68891e-05
-1.66703e-05
-1.67285e-05
-1.66605e-05
-1.67498e-05
-1.66523e-05
-1.64073e-05
-1.63622e-05
-1.63526e-05
-1.64455e-05
-1.65477e-05
-1.65022e-05
-1.6551e-05
-1.65087e-05
-1.6403e-05
-1.63526e-05
-1.64242e-05
-1.639e-05
-1.63901e-05
-1.639e-05
-1.639e-05
-1.67015e-05
-1.6561e-05
-1.64454e-05
-1.639e-05
-1.639e-05
-1.639e-05
-1.639e-05
-1.639e-05
-1.639e-05
-1.68012e-05
-1.64555e-05
-1.64076e-05
-1.65478e-05
-1.639e-05
-1.639e-05
-1.639e-05
-1.639e-05
-1.639e-05
-1.639e-05
-1.68338e-05
-1.65129e-05
-1.63622e-05
-1.65023e-05
-1.639e-05
-1.639e-05
-1.639e-05
-1.639e-05
-1.639e-05
-1.639e-05
-1.67652e-05
-1.6445e-05
-1.65513e-05
-1.639e-05
-1.639e-05
-1.639e-05
-1.639e-05
-1.639e-05
-1.63901e-05
-1.68553e-05
-1.6534e-05
-1.65088e-05
-1.67012e-05
-1.639e-05
-1.639e-05
-1.639e-05
-1.639e-05
-1.68821e-05
-1.66993e-05
-1.64372e-05
-1.64027e-05
-1.65612e-05
-1.68012e-05
-1.68334e-05
-1.67647e-05
-1.68546e-05
-1.6699e-05
-1.66736e-05
-1.64546e-05
-1.65129e-05
-1.64451e-05
-1.65344e-05
-1.64369e-05
-1.61923e-05
-1.61473e-05
-1.61371e-05
-1.62303e-05
-1.63326e-05
-1.62872e-05
-1.63361e-05
-1.62939e-05
-1.61883e-05
-1.61372e-05
-1.62089e-05
-1.61749e-05
-1.61749e-05
-1.61749e-05
-1.61749e-05
-1.64866e-05
-1.63462e-05
-1.62302e-05
-1.61749e-05
-1.61749e-05
-1.61749e-05
-1.61749e-05
-1.61749e-05
-1.61749e-05
-1.65861e-05
-1.62407e-05
-1.61925e-05
-1.63327e-05
-1.61749e-05
-1.61749e-05
-1.61749e-05
-1.61749e-05
-1.61749e-05
-1.61749e-05
-1.66188e-05
-1.6298e-05
-1.61473e-05
-1.62873e-05
-1.61749e-05
-1.61749e-05
-1.61749e-05
-1.61749e-05
-1.61749e-05
-1.61749e-05
-1.65501e-05
-1.623e-05
-1.63364e-05
-1.61749e-05
-1.61749e-05
-1.61749e-05
-1.61749e-05
-1.61749e-05
-1.61749e-05
-1.66402e-05
-1.63191e-05
-1.6294e-05
-1.64862e-05
-1.61749e-05
-1.61749e-05
-1.61749e-05
-1.61749e-05
-1.6667e-05
-1.64842e-05
-1.62222e-05
-1.61878e-05
-1.63463e-05
-1.65862e-05
-1.66183e-05
-1.65497e-05
-1.66395e-05
-1.64838e-05
-1.64586e-05
-1.62396e-05
-1.62979e-05
-1.623e-05
-1.63194e-05
-1.62219e-05
-1.5977e-05
-1.59319e-05
-1.59219e-05
-1.60152e-05
-1.61174e-05
-1.6072e-05
-1.61208e-05
-1.60782e-05
-1.59728e-05
-1.5922e-05
-1.59938e-05
-1.59599e-05
-1.59599e-05
-1.59599e-05
-1.59599e-05
-1.62714e-05
-1.61309e-05
-1.60151e-05
-1.59599e-05
-1.59599e-05
-1.596e-05
-1.596e-05
-1.59599e-05
-1.59599e-05
-1.63708e-05
-1.60253e-05
-1.59772e-05
-1.61176e-05
-1.59599e-05
-1.596e-05
-1.596e-05
-1.596e-05
-1.596e-05
-1.59599e-05
-1.64036e-05
-1.60826e-05
-1.59319e-05
-1.60721e-05
-1.59599e-05
-1.596e-05
-1.596e-05
-1.596e-05
-1.596e-05
-1.59599e-05
-1.63349e-05
-1.60146e-05
-1.6121e-05
-1.59599e-05
-1.59599e-05
-1.596e-05
-1.596e-05
-1.59599e-05
-1.59599e-05
-1.6425e-05
-1.61034e-05
-1.60785e-05
-1.6271e-05
-1.59599e-05
-1.59599e-05
-1.59599e-05
-1.59599e-05
-1.64518e-05
-1.62688e-05
-1.60065e-05
-1.59724e-05
-1.6131e-05
-1.6371e-05
-1.64032e-05
-1.63345e-05
-1.64242e-05
-1.62685e-05
-1.6243e-05
-1.60243e-05
-1.60826e-05
-1.60146e-05
-1.61038e-05
-1.60061e-05
-1.57625e-05
-1.57174e-05
-1.57076e-05
-1.58008e-05
-1.59031e-05
-1.58576e-05
-1.59065e-05
-1.58638e-05
-1.57584e-05
-1.57077e-05
-1.57795e-05
-1.57457e-05
-1.57457e-05
-1.57457e-05
-1.57457e-05
-1.60571e-05
-1.59165e-05
-1.58008e-05
-1.57457e-05
-1.57457e-05
-1.57456e-05
-1.57456e-05
-1.57457e-05
-1.57457e-05
-1.61565e-05
-1.58108e-05
-1.57627e-05
-1.59032e-05
-1.57457e-05
-1.57456e-05
-1.57456e-05
-1.57456e-05
-1.57457e-05
-1.57457e-05
-1.61893e-05
-1.58682e-05
-1.57174e-05
-1.58577e-05
-1.57457e-05
-1.57456e-05
-1.57456e-05
-1.57456e-05
-1.57457e-05
-1.57457e-05
-1.61206e-05
-1.58003e-05
-1.59067e-05
-1.57457e-05
-1.57457e-05
-1.57456e-05
-1.57457e-05
-1.57457e-05
-1.57457e-05
-1.62107e-05
-1.58892e-05
-1.58641e-05
-1.60568e-05
-1.57457e-05
-1.57457e-05
-1.57457e-05
-1.57457e-05
-1.62377e-05
-1.60547e-05
-1.57923e-05
-1.5758e-05
-1.59167e-05
-1.61567e-05
-1.6189e-05
-1.61203e-05
-1.621e-05
-1.60544e-05
-1.60289e-05
-1.58098e-05
-1.58681e-05
-1.58002e-05
-1.58895e-05
-1.5792e-05
-1.55493e-05
-1.55043e-05
-1.54942e-05
-1.55873e-05
-1.56895e-05
-1.5644e-05
-1.56929e-05
-1.56504e-05
-1.55451e-05
-1.54942e-05
-1.55657e-05
-1.55313e-05
-1.55313e-05
-1.55313e-05
-1.55313e-05
-1.58432e-05
-1.57029e-05
-1.55872e-05
-1.55313e-05
-1.55312e-05
-1.55311e-05
-1.55311e-05
-1.55312e-05
-1.55313e-05
-1.59427e-05
-1.55976e-05
-1.55496e-05
-1.56897e-05
-1.55313e-05
-1.55311e-05
-1.55311e-05
-1.55311e-05
-1.55311e-05
-1.55312e-05
-1.59754e-05
-1.56549e-05
-1.55044e-05
-1.56442e-05
-1.55313e-05
-1.55311e-05
-1.55311e-05
-1.55311e-05
-1.55311e-05
-1.55312e-05
-1.59067e-05
-1.55867e-05
-1.56932e-05
-1.55313e-05
-1.55312e-05
-1.55311e-05
-1.55311e-05
-1.55311e-05
-1.55312e-05
-1.59968e-05
-1.56757e-05
-1.56507e-05
-1.58429e-05
-1.55313e-05
-1.55312e-05
-1.55312e-05
-1.55312e-05
-1.60235e-05
-1.58408e-05
-1.55789e-05
-1.55446e-05
-1.57031e-05
-1.5943e-05
-1.59751e-05
-1.59064e-05
-1.59961e-05
-1.58405e-05
-1.58153e-05
-1.55966e-05
-1.56548e-05
-1.55867e-05
-1.56761e-05
-1.55786e-05
-1.53327e-05
-1.52877e-05
-1.52776e-05
-1.53705e-05
-1.54727e-05
-1.54273e-05
-1.54762e-05
-1.54341e-05
-1.53289e-05
-1.52779e-05
-1.53491e-05
-1.53144e-05
-1.53145e-05
-1.53145e-05
-1.53145e-05
-1.56266e-05
-1.54863e-05
-1.53704e-05
-1.53144e-05
-1.53144e-05
-1.53145e-05
-1.53145e-05
-1.53145e-05
-1.53145e-05
-1.57261e-05
-1.53812e-05
-1.5333e-05
-1.54728e-05
-1.53145e-05
-1.53145e-05
-1.53145e-05
-1.53145e-05
-1.53145e-05
-1.53145e-05
-1.57588e-05
-1.54384e-05
-1.52877e-05
-1.54274e-05
-1.53145e-05
-1.53145e-05
-1.53145e-05
-1.53145e-05
-1.53145e-05
-1.53145e-05
-1.56902e-05
-1.53703e-05
-1.54764e-05
-1.53145e-05
-1.53145e-05
-1.53145e-05
-1.53145e-05
-1.53145e-05
-1.53145e-05
-1.57803e-05
-1.54596e-05
-1.54344e-05
-1.56263e-05
-1.53145e-05
-1.53145e-05
-1.53145e-05
-1.53145e-05
-1.5807e-05
-1.56244e-05
-1.53628e-05
-1.53285e-05
-1.54865e-05
-1.57264e-05
-1.57586e-05
-1.56899e-05
-1.57796e-05
-1.56241e-05
-1.55991e-05
-1.53803e-05
-1.54384e-05
-1.53702e-05
-1.54598e-05
-1.53628e-05
-1.51151e-05
-1.50701e-05
-1.50598e-05
-1.51531e-05
-1.52553e-05
-1.52099e-05
-1.52587e-05
-1.52161e-05
-1.51107e-05
-1.50601e-05
-1.51317e-05
-1.50976e-05
-1.50976e-05
-1.50976e-05
-1.50975e-05
-1.54091e-05
-1.52685e-05
-1.5153e-05
-1.50976e-05
-1.50976e-05
-1.50977e-05
-1.50976e-05
-1.50976e-05
-1.50975e-05
-1.55085e-05
-1.51631e-05
-1.51154e-05
-1.52555e-05
-1.50976e-05
-1.50977e-05
-1.50977e-05
-1.50977e-05
-1.50976e-05
-1.50975e-05
-1.55413e-05
-1.52205e-05
-1.50701e-05
-1.521e-05
-1.50976e-05
-1.50976e-05
-1.50977e-05
-1.50977e-05
-1.50976e-05
-1.50975e-05
-1.54726e-05
-1.51524e-05
-1.52589e-05
-1.50975e-05
-1.50976e-05
-1.50976e-05
-1.50976e-05
-1.50976e-05
-1.50975e-05
-1.55628e-05
-1.52416e-05
-1.52164e-05
-1.54088e-05
-1.50975e-05
-1.50975e-05
-1.50975e-05
-1.50975e-05
-1.55896e-05
-1.54068e-05
-1.51447e-05
-1.51102e-05
-1.52687e-05
-1.55088e-05
-1.55411e-05
-1.54724e-05
-1.55621e-05
-1.54064e-05
-1.53811e-05
-1.51621e-05
-1.52204e-05
-1.51524e-05
-1.52419e-05
-1.51446e-05
-1.48991e-05
-1.4854e-05
-1.4844e-05
-1.49374e-05
-1.50397e-05
-1.49943e-05
-1.50432e-05
-1.50006e-05
-1.48953e-05
-1.48444e-05
-1.49161e-05
-1.48823e-05
-1.48823e-05
-1.48823e-05
-1.48823e-05
-1.51938e-05
-1.50533e-05
-1.49374e-05
-1.48823e-05
-1.48823e-05
-1.48823e-05
-1.48823e-05
-1.48824e-05
-1.48824e-05
-1.52933e-05
-1.49477e-05
-1.48993e-05
-1.50398e-05
-1.48823e-05
-1.48823e-05
-1.48824e-05
-1.48824e-05
-1.48824e-05
-1.48824e-05
-1.53261e-05
-1.5005e-05
-1.48541e-05
-1.49944e-05
-1.48823e-05
-1.48824e-05
-1.48824e-05
-1.48824e-05
-1.48824e-05
-1.48824e-05
-1.52573e-05
-1.49371e-05
-1.50434e-05
-1.48823e-05
-1.48824e-05
-1.48824e-05
-1.48824e-05
-1.48824e-05
-1.48824e-05
-1.53474e-05
-1.50259e-05
-1.50009e-05
-1.51935e-05
-1.48824e-05
-1.48824e-05
-1.48824e-05
-1.48824e-05
-1.53743e-05
-1.51914e-05
-1.4929e-05
-1.48949e-05
-1.50535e-05
-1.52936e-05
-1.53258e-05
-1.5257e-05
-1.53467e-05
-1.5191e-05
-1.51655e-05
-1.49467e-05
-1.50049e-05
-1.4937e-05
-1.50261e-05
-1.49289e-05
-1.46851e-05
-1.464e-05
-1.46299e-05
-1.47234e-05
-1.48255e-05
-1.47799e-05
-1.48288e-05
-1.47865e-05
-1.4681e-05
-1.46302e-05
-1.47017e-05
-1.46676e-05
-1.46675e-05
-1.46675e-05
-1.46675e-05
-1.49792e-05
-1.48388e-05
-1.47231e-05
-1.46676e-05
-1.46675e-05
-1.46675e-05
-1.46675e-05
-1.46675e-05
-1.46675e-05
-1.50787e-05
-1.47334e-05
-1.46853e-05
-1.48255e-05
-1.46675e-05
-1.46675e-05
-1.46675e-05
-1.46675e-05
-1.46675e-05
-1.46675e-05
-1.51114e-05
-1.47906e-05
-1.464e-05
-1.478e-05
-1.46675e-05
-1.46675e-05
-1.46675e-05
-1.46675e-05
-1.46675e-05
-1.46675e-05
-1.50427e-05
-1.47225e-05
-1.4829e-05
-1.46675e-05
-1.46675e-05
-1.46675e-05
-1.46675e-05
-1.46675e-05
-1.46675e-05
-1.51328e-05
-1.48117e-05
-1.47867e-05
-1.4979e-05
-1.46675e-05
-1.46675e-05
-1.46675e-05
-1.46675e-05
-1.51596e-05
-1.49769e-05
-1.47148e-05
-1.46806e-05
-1.4839e-05
-1.50789e-05
-1.51111e-05
-1.50424e-05
-1.51321e-05
-1.49765e-05
-1.49513e-05
-1.47324e-05
-1.47905e-05
-1.47225e-05
-1.48119e-05
-1.47148e-05
-1.44699e-05
-1.44248e-05
-1.44143e-05
-1.45079e-05
-1.461e-05
-1.45645e-05
-1.46131e-05
-1.45708e-05
-1.44653e-05
-1.44146e-05
-1.44862e-05
-1.44521e-05
-1.44521e-05
-1.44521e-05
-1.44521e-05
-1.47637e-05
-1.46233e-05
-1.45076e-05
-1.44521e-05
-1.44521e-05
-1.44521e-05
-1.44522e-05
-1.44522e-05
-1.44522e-05
-1.48633e-05
-1.4518e-05
-1.44701e-05
-1.46101e-05
-1.44521e-05
-1.44522e-05
-1.44522e-05
-1.44522e-05
-1.44522e-05
-1.44522e-05
-1.48961e-05
-1.45753e-05
-1.44248e-05
-1.45646e-05
-1.44521e-05
-1.44522e-05
-1.44522e-05
-1.44522e-05
-1.44522e-05
-1.44522e-05
-1.48274e-05
-1.45073e-05
-1.46136e-05
-1.44521e-05
-1.44522e-05
-1.44522e-05
-1.44522e-05
-1.44522e-05
-1.44522e-05
-1.49175e-05
-1.45963e-05
-1.4571e-05
-1.47634e-05
-1.44522e-05
-1.44522e-05
-1.44522e-05
-1.44522e-05
-1.49443e-05
-1.47615e-05
-1.44994e-05
-1.44649e-05
-1.46235e-05
-1.48635e-05
-1.48958e-05
-1.48271e-05
-1.49168e-05
-1.47612e-05
-1.47359e-05
-1.4517e-05
-1.45752e-05
-1.45073e-05
-1.45965e-05
-1.44993e-05
-1.4254e-05
-1.4209e-05
-1.4199e-05
-1.42925e-05
-1.43945e-05
-1.4349e-05
-1.43978e-05
-1.43556e-05
-1.42502e-05
-1.41993e-05
-1.42709e-05
-1.42368e-05
-1.42369e-05
-1.42369e-05
-1.42369e-05
-1.45485e-05
-1.44081e-05
-1.42922e-05
-1.42368e-05
-1.42369e-05
-1.42369e-05
-1.42369e-05
-1.42369e-05
-1.42369e-05
-1.46479e-05
-1.43025e-05
-1.42543e-05
-1.43946e-05
-1.42368e-05
-1.42369e-05
-1.42369e-05
-1.42369e-05
-1.42369e-05
-1.42369e-05
-1.46806e-05
-1.43597e-05
-1.4209e-05
-1.43491e-05
-1.42369e-05
-1.42369e-05
-1.42369e-05
-1.42369e-05
-1.42369e-05
-1.42368e-05
-1.46119e-05
-1.42917e-05
-1.43982e-05
-1.42369e-05
-1.42369e-05
-1.42369e-05
-1.42369e-05
-1.42368e-05
-1.42368e-05
-1.4702e-05
-1.43807e-05
-1.43559e-05
-1.45482e-05
-1.42369e-05
-1.42369e-05
-1.42368e-05
-1.42368e-05
-1.47288e-05
-1.4546e-05
-1.42839e-05
-1.42499e-05
-1.44083e-05
-1.46482e-05
-1.46804e-05
-1.46116e-05
-1.47013e-05
-1.45456e-05
-1.45204e-05
-1.43015e-05
-1.43596e-05
-1.42916e-05
-1.43809e-05
-1.42838e-05
-1.40392e-05
-1.39941e-05
-1.39836e-05
-1.40774e-05
-1.41795e-05
-1.4134e-05
-1.41827e-05
-1.41404e-05
-1.40348e-05
-1.3984e-05
-1.40558e-05
-1.4022e-05
-1.4022e-05
-1.4022e-05
-1.4022e-05
-1.43334e-05
-1.41929e-05
-1.40771e-05
-1.4022e-05
-1.4022e-05
-1.4022e-05
-1.4022e-05
-1.4022e-05
-1.4022e-05
-1.44329e-05
-1.40873e-05
-1.40393e-05
-1.41796e-05
-1.4022e-05
-1.4022e-05
-1.4022e-05
-1.4022e-05
-1.4022e-05
-1.4022e-05
-1.44657e-05
-1.41447e-05
-1.39941e-05
-1.4134e-05
-1.4022e-05
-1.4022e-05
-1.4022e-05
-1.4022e-05
-1.4022e-05
-1.4022e-05
-1.4397e-05
-1.40767e-05
-1.41831e-05
-1.4022e-05
-1.4022e-05
-1.4022e-05
-1.4022e-05
-1.4022e-05
-1.4022e-05
-1.44871e-05
-1.41657e-05
-1.41406e-05
-1.43331e-05
-1.4022e-05
-1.4022e-05
-1.4022e-05
-1.4022e-05
-1.45139e-05
-1.4331e-05
-1.40687e-05
-1.40344e-05
-1.41931e-05
-1.44329e-05
-1.44654e-05
-1.43966e-05
-1.44864e-05
-1.43307e-05
-1.43052e-05
-1.40865e-05
-1.41447e-05
-1.40767e-05
-1.4166e-05
-1.40687e-05
-1.38248e-05
-1.37797e-05
-1.37696e-05
-1.38632e-05
-1.39653e-05
-1.39197e-05
-1.39685e-05
-1.39264e-05
-1.38207e-05
-1.377e-05
-1.38416e-05
-1.38075e-05
-1.38074e-05
-1.38074e-05
-1.38074e-05
-1.41188e-05
-1.39787e-05
-1.38629e-05
-1.38075e-05
-1.38074e-05
-1.38074e-05
-1.38074e-05
-1.38074e-05
-1.38074e-05
-1.42186e-05
-1.38732e-05
-1.3825e-05
-1.39653e-05
-1.38074e-05
-1.38074e-05
-1.38073e-05
-1.38073e-05
-1.38073e-05
-1.38074e-05
-1.42514e-05
-1.39305e-05
-1.37797e-05
-1.39198e-05
-1.38074e-05
-1.38074e-05
-1.38073e-05
-1.38073e-05
-1.38073e-05
-1.38074e-05
-1.41827e-05
-1.38626e-05
-1.39689e-05
-1.38074e-05
-1.38074e-05
-1.38073e-05
-1.38073e-05
-1.38074e-05
-1.38074e-05
-1.42728e-05
-1.39516e-05
-1.39264e-05
-1.41188e-05
-1.38074e-05
-1.38074e-05
-1.38074e-05
-1.38074e-05
-1.42996e-05
-1.41169e-05
-1.38547e-05
-1.38203e-05
-1.39788e-05
-1.42186e-05
-1.4251e-05
-1.41823e-05
-1.42721e-05
-1.41165e-05
-1.40912e-05
-1.38723e-05
-1.39305e-05
-1.38625e-05
-1.39518e-05
-1.38547e-05
-1.361e-05
-1.35649e-05
-1.35547e-05
-1.36479e-05
-1.37499e-05
-1.37044e-05
-1.37532e-05
-1.37114e-05
-1.36059e-05
-1.35551e-05
-1.36262e-05
-1.35915e-05
-1.35915e-05
-1.35915e-05
-1.35915e-05
-1.39033e-05
-1.37635e-05
-1.36476e-05
-1.35915e-05
-1.35915e-05
-1.35915e-05
-1.35915e-05
-1.35915e-05
-1.35916e-05
-1.40032e-05
-1.36582e-05
-1.36102e-05
-1.375e-05
-1.35915e-05
-1.35915e-05
-1.35915e-05